ITEM: TIMESTEP
34400
ITEM: NUMBER OF ATOMS
890
ITEM: BOX BOUNDS mm mm mm
-0.05 0.05
-0.05 0.05
0 0.15
ITEM: ATOMS id type type x y z ix iy iz vx vy vz fx fy fz omegax omegay omegaz radius f_Temp[0] f_heatFlux[0] 
59 1 1 -0.000715548 -0.0460982 0.00395598 0 0 0 -1.07686e-06 1.12347e-06 9.60973e-07 -3.95232e-07 -3.87903e-07 -2.52135e-07 7.62662e-05 1.09012e-05 1.51671e-05 0.004 536.063 0.563871 
170 1 1 -0.0173498 -0.0426414 0.00397301 0 0 0 -1.26163e-06 7.00874e-07 3.44096e-07 -7.37252e-08 -1.28483e-07 8.2816e-08 0.000223945 -2.24375e-05 0.000134457 0.004 396.222 4.51775 
15 1 1 -0.00975016 -0.0449638 0.00393397 0 0 0 -1.13942e-06 7.68954e-07 3.16719e-07 -4.63774e-07 -2.1182e-07 5.20174e-07 -0.000141447 -0.000233013 9.16932e-06 0.004 433.608 4.01333 
116 1 1 0.00648761 -0.0428197 0.00395869 0 0 0 -1.82886e-06 1.34817e-06 1.38358e-06 -7.42379e-08 -1.20355e-06 5.8182e-08 -5.79356e-05 -0.000306369 0.00018869 0.004 617.186 -2.13405 
158 1 1 0.0143627 -0.0437625 0.00389981 0 0 0 -1.71709e-06 1.27843e-06 1.67929e-06 -4.25019e-08 -6.65484e-07 -1.73378e-07 -4.4164e-05 -0.000241935 9.83176e-05 0.004 671.155 -3.58848 
98 1 1 0.0216779 -0.0406527 0.00394261 0 0 0 -1.63767e-06 9.488e-07 1.73241e-06 -2.78394e-08 -5.2743e-07 -3.85709e-07 8.50621e-05 5.18167e-06 7.09622e-05 0.004 715.635 -4.11337 
169 1 1 -0.0244315 -0.0390659 0.00391427 0 0 0 -1.13546e-06 1.40547e-06 1.09851e-06 1.52923e-07 1.62549e-07 4.4554e-07 4.51645e-06 -0.000207083 0.000128378 0.004 357.364 4.12076 
89 1 1 -0.011812 -0.0369235 0.00395462 0 0 0 -2.35794e-06 2.18276e-06 1.00758e-06 2.78463e-08 -4.35674e-07 3.99638e-07 -0.000278359 -2.0447e-05 -0.000226367 0.004 426.195 3.50557 
152 1 1 -0.00418342 -0.0390223 0.00390524 0 0 0 -2.91138e-06 2.30791e-06 2.0787e-06 -1.53262e-07 -7.53068e-07 1.49903e-07 -0.000115857 -0.000269868 0.000398847 0.004 497.323 1.69185 
23 1 1 0.0153483 -0.035882 0.00391129 0 0 0 -3.51265e-06 2.31014e-06 4.08467e-06 -4.90123e-08 -1.45194e-06 -7.94783e-07 1.0844e-05 -0.000309097 0.0001114 0.004 683.383 -3.77313 
118 1 1 -0.0307533 -0.0342397 0.00392725 0 0 0 -1.57171e-06 1.18435e-06 2.87245e-07 2.67508e-07 5.43574e-08 3.82798e-07 -0.00022381 -0.000349736 0.000183457 0.004 330.062 3.33467 
30 1 1 -0.0188787 -0.0333717 0.00395275 0 0 0 -2.6865e-06 3.80902e-06 2.39156e-06 4.26739e-07 -9.56236e-08 7.0398e-07 -0.000269169 -0.000186361 0.000154024 0.004 371.934 3.98266 
215 1 1 -0.00603631 -0.0313238 0.00390661 0 0 0 -3.99628e-06 3.52095e-06 2.47654e-06 9.41906e-08 -7.71875e-07 4.2771e-07 -0.00057598 -0.000271123 -0.00041808 0.004 472.44 2.37697 
74 1 1 0.0018414 -0.0338192 0.0039068 0 0 0 -4.47664e-06 3.99581e-06 2.84342e-06 1.00018e-07 -1.50734e-06 6.95257e-08 -0.000632436 -0.000673798 -4.6269e-05 0.004 558.121 -0.175549 
24 1 1 0.00917856 -0.0308341 0.00392035 0 0 0 -5.03885e-06 3.0169e-06 3.35594e-06 6.6787e-08 -1.96001e-06 -4.31082e-07 -0.000470324 -0.000557804 -0.000128566 0.004 641.284 -2.68138 
198 1 1 0.0259423 -0.0339524 0.00395551 0 0 0 -3.43599e-06 9.0933e-07 3.20716e-06 4.20038e-07 -1.24553e-06 -1.08357e-06 0.000245292 -0.000360649 0.000518368 0.004 748.126 -3.84715 
161 1 1 0.0335301 -0.0316074 0.00391358 0 0 0 -2.11319e-06 1.6271e-06 2.43474e-06 2.8549e-07 -1.40574e-06 -7.3005e-07 -7.08147e-05 3.28208e-05 -0.000119739 0.004 770.129 -3.09791 
8 1 1 -0.0322699 -0.0264156 0.00398405 0 0 0 -2.36422e-06 1.43866e-06 3.39122e-07 5.20854e-07 1.9098e-07 6.93479e-07 0.000107621 -1.12803e-05 0.000149452 0.004 324.287 2.85688 
12 1 1 -0.0244143 -0.0276959 0.00386438 0 0 0 -3.59835e-06 3.11927e-06 1.74199e-06 8.41966e-07 2.64204e-07 1.2035e-06 -0.000138838 -0.000524722 0.000306916 0.004 346.961 3.67201 
188 1 1 -0.0131742 -0.0277762 0.00396588 0 0 0 -4.3348e-06 5.36246e-06 3.36877e-06 7.88517e-07 -3.65977e-07 5.07624e-07 -0.000472963 -0.000260962 0.000173424 0.004 392.418 4.02897 
77 1 1 -0.000100238 -0.0260809 0.00389417 0 0 0 -5.48299e-06 4.49099e-06 2.31519e-06 -6.02024e-08 -1.65978e-06 4.75811e-07 -0.000700074 -0.00128525 0.000736433 0.004 541.03 0.316219 
113 1 1 0.0165643 -0.0280203 0.0038866 0 0 0 -5.0231e-06 2.35383e-06 4.12718e-06 3.19175e-07 -1.79642e-06 -7.27544e-07 -0.000300572 -0.000534785 0.000175968 0.004 700.624 -3.68692 
183 1 1 0.0384541 -0.0253742 0.00393848 0 0 0 -2.24612e-06 1.35381e-06 2.55301e-06 2.07401e-07 -1.03153e-06 -7.51773e-07 0.000100936 0.000189466 5.13984e-05 0.004 783.505 -2.24043 
162 1 1 -0.0396311 -0.023418 0.00390783 0 0 0 -1.19311e-06 1.16045e-06 7.39947e-07 3.19246e-07 6.78249e-09 3.15414e-07 -0.000196325 -0.000213288 4.55812e-05 0.004 312.26 1.88565 
53 1 1 -0.027206 -0.0202486 0.00395168 0 0 0 -3.51276e-06 3.24508e-06 1.65309e-06 3.6385e-07 4.73924e-07 7.36734e-07 -0.000367158 -0.00062008 -0.000338605 0.004 332.94 3.18824 
148 1 1 -0.0187584 -0.0220642 0.00393816 0 0 0 -5.70526e-06 5.98981e-06 1.53849e-06 1.03275e-06 -1.56199e-07 1.20681e-06 -0.00115601 -0.000964677 0.00018959 0.004 368.55 4.17714 
195 1 1 -0.00727817 -0.02155 0.00394566 0 0 0 -8.25028e-06 5.19551e-06 3.74425e-06 1.19088e-06 -9.83031e-07 2.93021e-07 -0.000762984 -0.00205404 0.000349603 0.004 454.201 3.25767 
179 1 1 0.00736629 -0.0231031 0.00394275 0 0 0 -7.53233e-06 3.2203e-06 1.83115e-06 4.90725e-07 -2.09736e-06 -4.21523e-07 -0.00021556 -0.00164939 0.000498954 0.004 640.577 -2.79064 
95 1 1 0.0148506 -0.02031 0.00393212 0 0 0 -7.30579e-06 2.6631e-06 5.90229e-06 8.60718e-07 -2.0234e-06 -1.40353e-06 -0.000382715 -0.00103067 -0.000195345 0.004 696.418 -3.6564 
76 1 1 0.0230028 -0.0233057 0.00397474 0 0 0 -5.78981e-06 1.68922e-06 4.25932e-06 4.61709e-07 -2.65212e-06 -1.30193e-06 -0.000102131 -0.0011625 7.1311e-05 0.004 752.912 -3.6339 
100 1 1 0.0325586 -0.0200895 0.00388597 0 0 0 -6.13268e-06 2.60334e-06 5.93965e-06 4.42093e-07 -2.86912e-06 -2.03498e-06 -6.33299e-06 -0.000868149 0.000112324 0.004 777.113 -2.61912 
65 1 1 -0.0430742 -0.0162802 0.00393145 0 0 0 -8.72812e-07 1.06582e-06 3.04507e-07 2.47891e-07 -2.27939e-07 2.86092e-07 -0.000108027 5.34689e-05 9.48869e-05 0.004 307.706 1.36849 
102 1 1 -0.0351583 -0.0155178 0.00394449 0 0 0 -3.4276e-06 4.74249e-06 1.90543e-06 4.53348e-07 1.20166e-07 9.24743e-07 -0.00138463 -0.000851467 0.000700708 0.004 314.977 2.0118 
213 1 1 -0.0132588 -0.0162738 0.00397365 0 0 0 -4.73884e-06 4.75482e-06 1.32319e-06 2.20764e-07 -5.16236e-07 7.09381e-07 2.50782e-05 -0.000163504 -0.000851787 0.004 395.468 4.27354 
10 1 1 0.00114846 -0.0182524 0.00475004 0 0 0 -8.69187e-06 4.90081e-06 5.06512e-06 -4.06003e-07 -2.31164e-06 4.10123e-08 0.000764481 0.0014481 -0.000543197 0.004 568.182 -0.650674 
5 1 1 0.00879791 -0.0152553 0.00390316 0 0 0 -6.81919e-06 3.47058e-06 4.81399e-06 2.48076e-08 -2.67583e-06 -1.16999e-06 -0.000207122 -0.000595081 -0.000396553 0.004 650.976 -2.93989 
96 1 1 0.0211693 -0.0155242 0.00395653 0 0 0 -6.77704e-06 1.93285e-06 5.46116e-06 1.06654e-06 -2.7019e-06 -2.02306e-06 -0.000269745 -0.000789879 0.000190146 0.004 746.288 -3.57227 
167 1 1 0.0421923 -0.0183683 0.00392112 0 0 0 -2.25086e-06 1.20046e-06 1.53235e-06 4.97113e-07 -8.57873e-07 -3.83153e-07 -0.000321295 -0.000487683 -0.000168363 0.004 792.316 -1.38685 
124 1 1 -0.029011 -0.0104716 0.00394791 0 0 0 -4.35038e-06 4.55072e-06 1.42062e-06 -3.78323e-07 7.82608e-07 1.37711e-06 -0.000799113 -0.00113832 -0.000683113 0.004 329.385 2.83155 
220 1 1 -0.0217759 -0.0144543 0.00398045 0 0 0 -2.74703e-06 3.42007e-06 2.3523e-06 -7.06978e-07 6.51299e-07 3.53392e-07 -0.000597946 -0.000731686 0.000222031 0.004 352.497 3.53674 
144 1 1 -0.00535516 -0.0138038 0.00388181 0 0 0 -7.03063e-06 6.41406e-06 7.33469e-06 -8.87238e-07 -1.74072e-06 -4.64309e-07 -0.000690321 -0.00128645 -0.0003908 0.004 499.173 1.43496 
26 1 1 0.00255573 -0.0104629 0.0039057 0 0 0 -6.16984e-06 5.23265e-06 6.88288e-06 -6.48134e-07 -2.57708e-06 -8.37848e-07 -0.000187616 -6.26123e-05 3.16331e-05 0.004 573.733 -0.858958 
194 1 1 0.0287352 -0.013103 0.00393082 0 0 0 -7.41361e-06 2.7117e-06 6.47836e-06 6.96511e-07 -3.04946e-06 -2.19714e-06 -0.000229273 -0.00109193 0.000255436 0.004 772 -2.85365 
37 1 1 0.0366701 -0.0122308 0.00393307 0 0 0 -5.6751e-06 6.1998e-07 6.32075e-06 8.28521e-07 -3.69951e-06 -2.07363e-06 -0.000553007 -0.000907469 -0.00172305 0.004 788.682 -1.7381 
219 1 1 0.0447285 -0.0108715 0.00390888 0 0 0 -1.29232e-06 7.70188e-07 1.02221e-06 4.78707e-07 -7.37303e-07 -6.88696e-08 -0.000394305 -0.000259953 -0.0001882 0.004 795.644 -0.962266 
636 1 1 -0.0451998 -0.00864275 0.00391771 0 0 0 1.77271e-07 9.68439e-07 8.22275e-07 4.2538e-07 -1.43525e-07 6.89903e-08 -2.11261e-05 -1.91176e-05 -0.00031114 0.004 304.363 0.931196 
39 1 1 -0.0161466 -0.00885107 0.00388991 0 0 0 -4.35177e-06 5.37082e-06 4.13887e-06 -4.79386e-07 -4.59937e-07 8.84773e-07 -0.000556883 -0.000782347 0.000501509 0.004 392.929 3.39797 
171 1 1 -0.00395984 -0.00597827 0.00392048 0 0 0 -5.54991e-06 6.01218e-06 6.18519e-06 -6.72679e-07 -1.6664e-06 -5.74683e-07 -0.000749333 -0.000497167 -0.000167308 0.004 505.343 1.14394 
200 1 1 0.0146298 -0.00986519 0.0039638 0 0 0 -7.54063e-06 2.85353e-06 5.86026e-06 4.04977e-07 -2.69298e-06 -1.82958e-06 -0.000471724 -0.000960121 0.000154284 0.004 703.5 -3.86892 
21 1 1 0.022252 -0.00762161 0.00394338 0 0 0 -7.36094e-06 2.05627e-06 6.4277e-06 8.06371e-07 -2.97196e-06 -2.01257e-06 -0.000424062 -0.00109493 -0.000105598 0.004 749.197 -3.61827 
17 1 1 0.0298456 -0.00520716 0.00394877 0 0 0 -7.54251e-06 1.61768e-06 8.14209e-06 7.05737e-07 -2.98353e-06 -2.17416e-06 -0.000223182 -0.00153602 -0.000117084 0.004 772.177 -2.94396 
477 1 1 -0.0445832 -0.000710814 0.00396286 0 0 0 9.81027e-07 1.22503e-06 1.21566e-06 6.18691e-07 -1.84446e-07 9.50229e-08 -0.000158073 0.000218272 0.000373301 0.004 304.203 0.868031 
140 1 1 -0.0352672 -0.00371827 0.00387249 0 0 0 -1.49099e-06 3.35847e-06 2.02009e-06 7.20866e-07 -2.25364e-07 8.91682e-07 -0.000492079 -0.000244352 -0.000730716 0.004 316.86 1.94334 
119 1 1 -0.0273891 -0.00269833 0.00396392 0 0 0 -2.75161e-06 3.73035e-06 1.40965e-06 2.39671e-08 5.94547e-07 2.16004e-07 -0.000401173 -0.000330058 0.000414784 0.004 336.938 2.86461 
207 1 1 -0.0194911 -0.00168728 0.00389514 0 0 0 -4.3446e-06 5.43457e-06 4.50211e-06 -5.63311e-07 -1.83117e-07 1.59777e-06 -0.000370683 -0.000730222 -0.000210929 0.004 372.738 3.35194 
69 1 1 -0.0111573 -0.0026455 0.0039301 0 0 0 -5.03778e-06 5.34572e-06 4.36989e-06 -6.26588e-07 -1.04458e-06 5.91217e-07 -0.00056051 -0.000567644 -0.000226594 0.004 433.729 2.85817 
221 1 1 0.00874804 -0.00448987 0.00393204 0 0 0 -6.88515e-06 4.45987e-06 4.84787e-06 -3.28343e-08 -2.76956e-06 -1.52696e-06 -0.000554673 -0.000471375 -0.000261806 0.004 662.289 -3.33378 
457 1 1 0.0163505 -0.00208059 0.00395931 0 0 0 -7.35897e-06 2.86105e-06 4.78599e-06 7.65026e-07 -2.50681e-06 -1.37899e-06 -0.00105415 -0.00147944 -0.000409462 0.004 716.069 -4.04126 
155 1 1 0.0378912 -0.00224684 0.00393695 0 0 0 -6.07576e-06 -3.49723e-07 5.92072e-06 1.16045e-06 -3.5379e-06 -2.60005e-06 0.000188364 -0.00145019 0.000142589 0.004 789.507 -1.5661 
665 1 1 0.0459183 -0.00307627 0.00394261 0 0 0 -2.77457e-06 -5.53819e-08 1.16073e-06 1.07681e-06 -4.20495e-07 -5.97178e-07 0.000307053 -0.000681075 0.000467915 0.004 795.515 -0.951988 
120 1 1 0.00918486 -0.0371091 0.00876937 0 0 0 -7.42032e-06 4.22651e-06 4.61423e-06 6.05312e-07 -2.68244e-06 -2.67086e-07 -0.0003378 -0.000737823 0.000301352 0.004 643.971 -2.90232 
9 1 1 -0.0247147 -0.033359 0.00937624 0 0 0 -5.25018e-06 4.33071e-06 1.47757e-06 8.85572e-07 3.7165e-07 1.26519e-06 -0.000464142 -0.000743427 0.000693029 0.004 348.927 3.86041 
101 1 1 -0.0188615 -0.0277191 0.00955149 0 0 0 -7.98597e-06 8.67416e-06 4.02136e-06 1.36244e-06 -3.41811e-08 1.6968e-06 -0.000370961 -0.000639436 0.000497587 0.004 367.311 3.98885 
48 1 1 0.0221998 -0.0293138 0.00920034 0 0 0 -7.53597e-06 3.03142e-06 6.52886e-06 1.04514e-06 -3.34129e-06 -1.53152e-06 -0.000765997 -0.000120537 -0.000851601 0.004 736.263 -3.67252 
75 1 1 0.02936 -0.0261745 0.00787424 0 0 0 -6.28431e-06 2.05728e-06 5.92576e-06 7.23348e-07 -3.25442e-06 -2.10998e-06 0.000337649 -5.78031e-05 0.000726299 0.004 766.677 -3.10229 
46 1 1 -0.0327912 -0.0205809 0.00958351 0 0 0 -5.02996e-06 6.1434e-06 5.12595e-06 1.4871e-06 -2.15266e-07 1.89572e-06 0.000846297 0.00101667 -0.000817735 0.004 323.303 2.5894 
33 1 1 -0.013034 -0.0220249 0.00949571 0 0 0 -1.17124e-05 9.57195e-06 4.84578e-06 1.86855e-06 -7.34053e-07 9.78828e-07 -0.000526943 -0.000722699 -8.96026e-05 0.004 398.627 3.89647 
11 1 1 0.02689 -0.0187447 0.00924466 0 0 0 -1.17801e-05 2.54915e-06 1.02685e-05 1.88016e-06 -4.39052e-06 -3.27833e-06 0.000466719 0.000190104 0.000399526 0.004 762.381 -3.19569 
71 1 1 -0.0372751 -0.00954695 0.00876624 0 0 0 -4.0887e-06 4.74721e-06 2.09076e-06 1.2474e-06 -8.53764e-07 1.09295e-06 0.000993342 0.000729297 -0.000529278 0.004 311.231 1.62551 
62 1 1 -0.0228082 -0.00771371 0.0081404 0 0 0 -6.09893e-06 6.67177e-06 3.52353e-06 -2.81701e-07 2.04254e-07 1.83423e-06 0.000335145 -0.000120193 4.13936e-05 0.004 353.463 3.37893 
19 1 1 -0.00970673 -0.00905632 0.00849073 0 0 0 -1.01601e-05 1.1174e-05 8.95828e-06 -7.5934e-07 -2.2004e-06 3.82615e-07 -0.000242897 -8.77951e-05 -8.49587e-05 0.004 462.471 2.12679 
187 1 1 0.00796707 -0.00988203 0.00975755 0 0 0 -1.09844e-05 7.06481e-06 6.74848e-06 5.2204e-06 -5.1696e-06 -2.53505e-06 -0.000363847 -0.000850662 -6.52827e-05 0.004 648.473 -3.62137 
157 1 1 0.0395817 -0.00751947 0.00963116 0 0 0 -9.16611e-06 1.46079e-07 1.00008e-05 2.55649e-06 -4.28627e-06 -3.87664e-06 0.000253072 -0.000683278 0.00126563 0.004 792.852 -1.28654 
18 1 1 0.00229111 -0.004049 0.00852647 0 0 0 -9.42226e-06 9.32971e-06 1.13931e-05 -9.19785e-07 -3.64155e-06 -2.53382e-06 -1.29043e-05 4.02634e-05 -3.49759e-05 0.004 571.442 -0.750575 
185 1 1 -0.00531148 -0.045735 0.0104438 0 0 0 -3.15222e-06 1.57995e-06 1.4251e-06 4.9519e-07 -3.99125e-07 2.67294e-07 0.000151465 -0.000262292 0.000351762 0.004 488.803 2.09726 
83 1 1 0.00256736 -0.0459473 0.0112661 0 0 0 -3.94399e-06 2.40037e-06 1.83589e-06 5.86576e-07 -1.03356e-06 2.55655e-08 0.000493461 0.000113265 0.000343019 0.004 566.423 -0.593769 
58 1 1 -0.0218568 -0.0405821 0.0112769 0 0 0 -4.01791e-06 4.18508e-06 1.75439e-06 1.28147e-07 2.0128e-08 1.02864e-06 -0.000109621 -0.000461664 0.00120834 0.004 362.313 4.17487 
105 1 1 -0.013586 -0.043966 0.0108788 0 0 0 -3.58869e-06 1.32966e-06 -7.00248e-08 -3.95243e-07 -4.94573e-07 3.19653e-07 -0.00013144 -0.000380922 0.000961075 0.004 407.558 5.03674 
223 1 1 0.0103957 -0.0448674 0.0106706 0 0 0 -4.20923e-06 2.39969e-06 2.14626e-06 5.96377e-07 -1.12338e-06 6.79447e-07 4.4542e-05 -0.000268175 0.000160934 0.004 636.121 -2.7378 
217 1 1 0.0179432 -0.0424253 0.0108281 0 0 0 -4.40316e-06 2.66239e-06 3.46748e-06 5.19246e-07 -1.13129e-06 -2.62588e-07 0.000227303 -7.52574e-05 0.00028347 0.004 690.312 -3.8851 
6 1 1 -0.0162615 -0.0350311 0.0113114 0 0 0 -8.51802e-06 7.132e-06 2.9974e-06 2.39495e-07 -3.68419e-07 1.77913e-06 -7.0516e-05 -0.000223051 -0.000300677 0.004 390.1 4.0015 
151 1 1 -0.00801308 -0.0382603 0.0108115 0 0 0 -7.58487e-06 4.2398e-06 2.75144e-06 -1.26038e-07 -9.75986e-07 1.02278e-06 -4.14934e-05 -0.00108025 4.70461e-05 0.004 454.614 3.04935 
2 1 1 0.000443919 -0.038308 0.010271 0 0 0 -8.37253e-06 6.05928e-06 3.78629e-06 5.46595e-07 -2.48365e-06 2.28248e-07 -0.000216542 -0.000812424 0.000282124 0.004 548.849 0.0746469 
117 1 1 0.0249196 -0.0387267 0.0109177 0 0 0 -4.00848e-06 2.59819e-06 3.27035e-06 6.66979e-07 -1.58578e-06 -4.48583e-07 0.000160606 -4.10225e-05 0.000232723 0.004 735.101 -3.97233 
13 1 1 -0.0323455 -0.0327547 0.011537 0 0 0 -3.23029e-06 3.08977e-06 6.74759e-07 6.58465e-07 4.29115e-07 8.89935e-07 -3.82314e-05 0.000119328 -0.000219012 0.004 329.45 3.17141 
193 1 1 -0.00982579 -0.0305006 0.0107685 0 0 0 -1.08184e-05 7.89212e-06 4.06671e-06 1.32344e-07 -8.48824e-07 1.38666e-06 -0.00038849 -0.000962382 0.00105481 0.004 444.676 3.07758 
47 1 1 -0.00133758 -0.0305434 0.0103848 0 0 0 -1.24907e-05 7.51178e-06 2.7611e-06 4.82128e-07 -2.78833e-06 9.27281e-07 6.75719e-05 -0.000942886 0.000371789 0.004 535.389 0.523936 
153 1 1 0.00656462 -0.0300231 0.0113662 0 0 0 -1.33558e-05 7.2493e-06 7.01148e-06 1.03704e-06 -3.65972e-06 -7.97847e-07 0.000153143 -0.000474271 -0.000216258 0.004 616.247 -2.06431 
41 1 1 0.0148076 -0.0317915 0.010654 0 0 0 -1.03048e-05 6.31939e-06 7.7183e-06 1.17407e-06 -3.69297e-06 -1.55877e-06 -0.000331362 -0.000865997 0.000275261 0.004 688.919 -3.75458 
163 1 1 0.0311565 -0.0339183 0.0111114 0 0 0 -4.13013e-06 3.01411e-06 4.09166e-06 7.59915e-07 -2.06389e-06 -1.03101e-06 1.13682e-06 -2.93944e-05 -0.000179143 0.004 765.669 -3.20142 
214 1 1 -0.0375015 -0.0268265 0.010714 0 0 0 -3.05919e-06 3.13933e-06 2.05525e-06 8.27489e-07 1.57234e-07 8.68797e-07 0.000308328 -0.000650784 0.000905114 0.004 318.315 2.35271 
210 1 1 0.0364694 -0.0280971 0.0111135 0 0 0 -3.90926e-06 2.06821e-06 4.34116e-06 7.66098e-07 -1.75908e-06 -1.27153e-06 0.000227007 0.000116562 9.60299e-05 0.004 782.419 -2.26377 
108 1 1 -0.0260915 -0.0246404 0.0109304 0 0 0 -8.40687e-06 7.58393e-06 3.8472e-06 1.75733e-06 4.40886e-07 2.51558e-06 -0.000965161 -0.000150987 0.000930758 0.004 341.035 3.32548 
40 1 1 -0.00551112 -0.0238696 0.0113285 0 0 0 -1.58867e-05 9.71731e-06 5.75977e-06 1.50354e-06 -2.24825e-06 1.40095e-06 0.000346145 0.000475023 -0.000224876 0.004 485.138 1.93562 
55 1 1 0.00236208 -0.0232851 0.0108249 0 0 0 -1.67016e-05 1.00364e-05 8.04152e-06 1.69304e-06 -4.30762e-06 -3.35965e-07 -0.000134833 -0.00189039 0.000391234 0.004 579.235 -0.882603 
91 1 1 0.0120918 -0.0243837 0.0101856 0 0 0 -1.39395e-05 7.10845e-06 9.71331e-06 1.28698e-06 -4.31208e-06 -1.99884e-06 0.000473924 -0.000315815 0.000578268 0.004 670.98 -3.45913 
112 1 1 0.0192794 -0.020536 0.0105073 0 0 0 -1.45412e-05 5.57987e-06 1.55529e-05 1.86361e-06 -4.91406e-06 -4.02069e-06 -0.00114271 3.64207e-05 -0.000757067 0.004 721.535 -3.94161 
178 1 1 0.0318658 -0.0225253 0.0144789 0 0 0 -1.22136e-05 3.43702e-06 1.0494e-05 2.31922e-06 -3.89809e-06 -2.81246e-06 -0.000163983 -0.000888993 -1.50796e-05 0.004 778.239 -2.53036 
131 1 1 0.0407765 -0.0214683 0.0110513 0 0 0 -4.60661e-06 2.29648e-06 3.91155e-06 1.04859e-06 -1.90284e-06 -1.22278e-06 0.00022647 0.000464217 7.32886e-05 0.004 789.771 -1.63849 
160 1 1 -0.0414721 -0.0199398 0.0108131 0 0 0 -1.92419e-06 2.21812e-06 1.4338e-06 6.58121e-07 2.81885e-08 6.1628e-07 -0.000112819 -0.000114732 -0.000357738 0.004 309.246 1.54154 
43 1 1 -0.0361086 -0.0151005 0.0142598 0 0 0 -5.5699e-06 8.87849e-06 5.76377e-06 1.97465e-06 -5.9948e-07 2.40519e-06 -0.00206249 -0.00133014 0.00127329 0.004 315.41 1.92515 
4 1 1 -0.0270342 -0.0151184 0.010074 0 0 0 -9.37203e-06 8.60459e-06 4.9733e-06 1.15074e-06 1.8254e-07 2.56202e-06 -0.000204309 -0.000727354 0.00160665 0.004 336.469 3.14243 
104 1 1 -0.020301 -0.0192301 0.0111977 0 0 0 -1.10527e-05 1.25907e-05 5.2992e-06 1.77778e-06 -2.274e-07 2.39818e-06 0.000566028 -0.000412815 -0.000463431 0.004 363.611 3.70295 
20 1 1 -0.0074548 -0.0162217 0.0110955 0 0 0 -1.44318e-05 1.21319e-05 1.10298e-05 4.97086e-07 -2.93144e-06 1.9825e-07 -3.08058e-05 -0.000298107 -0.000449915 0.004 477.972 1.95083 
45 1 1 0.000825056 -0.0164513 0.0146047 0 0 0 -1.90461e-05 1.45976e-05 1.46121e-05 1.78676e-06 -5.30369e-06 -1.99622e-06 0.0010008 0.000479786 -0.000646696 0.004 559.088 -0.301609 
159 1 1 0.00795159 -0.0177076 0.0113471 0 0 0 -1.64696e-05 1.02919e-05 1.26319e-05 1.88684e-06 -5.34205e-06 -3.21517e-06 -0.000931479 -0.000595086 -0.000819584 0.004 643.545 -2.74704 
136 1 1 0.0347931 -0.0163371 0.0104656 0 0 0 -1.14484e-05 3.0937e-06 1.09772e-05 1.97141e-06 -4.3744e-06 -3.6e-06 0.000482332 0.000360606 0.000595292 0.004 783.656 -2.13436 
177 1 1 -0.0443274 -0.0125289 0.0108104 0 0 0 -1.91311e-06 2.11338e-06 1.12924e-06 6.05311e-07 -1.71444e-07 4.13056e-07 4.75105e-05 -0.000388969 0.000428017 0.004 306.46 1.18528 
139 1 1 -0.016821 -0.0121092 0.0110438 0 0 0 -1.09374e-05 1.33849e-05 9.48755e-06 1.14361e-06 -1.01209e-06 2.14848e-06 -0.00134862 -0.00180111 0.000648268 0.004 384.912 3.46666 
211 1 1 -0.00209539 -0.0104148 0.0103075 0 0 0 -1.22343e-05 1.16446e-05 1.25985e-05 -5.06592e-07 -3.92463e-06 -1.87078e-06 -0.00113638 -0.00108485 -0.00021567 0.004 527.459 0.541881 
54 1 1 0.0149155 -0.0138957 0.0108309 0 0 0 -1.54762e-05 6.7731e-06 1.21899e-05 1.94508e-06 -5.38266e-06 -3.97044e-06 -0.000721466 -0.000668887 0.000333176 0.004 703.166 -3.97438 
84 1 1 0.023272 -0.0118009 0.0106602 0 0 0 -1.74451e-05 4.08912e-06 1.4273e-05 2.96768e-06 -5.19857e-06 -4.53393e-06 -0.00017807 -0.00121509 -6.89761e-05 0.004 752.798 -3.51274 
180 1 1 0.0438204 -0.0140997 0.0110465 0 0 0 -4.02827e-06 1.7507e-06 4.36687e-06 1.31142e-06 -1.94578e-06 -1.13474e-06 0.00041828 4.00162e-05 -5.38528e-05 0.004 794.629 -1.09237 
103 1 1 0.0174441 -0.00636558 0.0105707 0 0 0 -1.76718e-05 5.88471e-06 1.32195e-05 2.24467e-06 -5.23198e-06 -4.56116e-06 0.000266174 -0.000265497 -0.000214581 0.004 721.361 -3.90029 
156 1 1 0.0308891 -0.00946109 0.01063 0 0 0 -1.53278e-05 3.24912e-06 1.50125e-05 2.39706e-06 -5.03873e-06 -4.71666e-06 0.00028104 -0.000199129 0.000101935 0.004 774.213 -2.70533 
197 1 1 -0.0457831 -0.0047112 0.0107571 0 0 0 4.02875e-07 1.65156e-06 2.29345e-06 6.41981e-07 -1.22743e-07 1.03472e-08 6.85815e-05 -0.000434944 -0.000368777 0.004 304.482 0.921509 
87 1 1 -0.0386059 -0.00381153 0.0141381 0 0 0 1.06314e-06 6.59371e-06 6.24671e-06 1.75232e-06 -1.60098e-06 1.44298e-06 -0.00113381 0.000656188 0.000388532 0.004 308.445 1.33316 
130 1 1 -0.0313597 -0.00387381 0.0107775 0 0 0 -2.58376e-06 8.78166e-06 4.6991e-06 4.0568e-06 -9.81205e-07 7.46848e-08 -0.00151942 -0.000111956 0.000855859 0.004 320.819 2.21287 
604 1 1 -0.0224595 -0.000300831 0.0110795 0 0 0 -8.00058e-06 1.20555e-05 8.07888e-06 -4.82382e-08 -8.22553e-07 4.18949e-06 -0.000980171 -1.63702e-05 0.000493514 0.004 361.012 3.15582 
146 1 1 -0.0155078 -0.00400723 0.0103913 0 0 0 -8.89456e-06 1.32243e-05 9.92076e-06 -2.50153e-07 -1.55918e-06 2.05011e-06 -0.00118258 0.000134943 -0.000270745 0.004 406.326 3.03155 
57 1 1 -0.00517522 -0.00310602 0.0111954 0 0 0 -1.16796e-05 1.21536e-05 1.14284e-05 -3.90731e-07 -3.35113e-06 -6.35655e-07 0.000184704 -0.000867028 -0.000205984 0.004 504.699 1.18114 
493 1 1 0.0116956 -0.000874998 0.0103666 0 0 0 -1.62143e-05 7.4886e-06 1.31704e-05 1.34219e-06 -5.10429e-06 -4.2505e-06 -0.000497956 -0.00172394 -0.000445481 0.004 681.341 -3.52009 
31 1 1 0.0250484 -0.00405413 0.0104601 0 0 0 -1.65422e-05 4.48193e-06 1.44185e-05 2.41348e-06 -5.37154e-06 -4.51306e-06 -0.000765153 -0.0010764 -0.00029075 0.004 754.617 -3.35691 
588 1 1 0.0325998 -0.00174521 0.0105431 0 0 0 -1.32625e-05 2.53135e-06 1.3871e-05 2.2826e-06 -5.41343e-06 -4.60229e-06 -0.000400109 -8.24065e-05 -0.000351852 0.004 774.801 -2.55996 
63 1 1 0.045924 -0.00327878 0.0119253 0 0 0 -5.89579e-06 9.71214e-07 5.75506e-06 1.2221e-06 -2.224e-06 -2.13554e-06 -0.000525763 0.00121006 -0.000618679 0.004 794.689 -1.03632 
107 1 1 -0.00850634 -0.045273 0.017677 0 0 0 -8.67137e-06 3.50724e-06 -1.22457e-06 2.98762e-07 -4.63394e-07 7.67662e-07 -0.00110176 -0.00120293 0.00161791 0.004 471.476 2.41822 
222 1 1 -0.00141961 -0.0418101 0.0171129 0 0 0 -1.31615e-05 7.4038e-06 3.0156e-06 7.96248e-07 -1.52467e-06 1.70689e-06 0.000492573 -0.000228114 -0.000427764 0.004 539.621 0.383242 
142 1 1 0.00615863 -0.0401388 0.0154212 0 0 0 -1.09548e-05 4.54387e-06 5.02007e-06 1.00891e-06 -2.16057e-06 4.10373e-07 0.000508482 -0.00030737 4.29445e-05 0.004 604.984 -1.74186 
172 1 1 0.0116013 -0.0446445 0.0189547 0 0 0 -7.8924e-06 3.40836e-06 3.97524e-06 1.29905e-06 -1.35117e-06 2.73265e-07 0.000698188 -0.000694865 0.00138352 0.004 647.308 -3.06542 
109 1 1 0.0204197 -0.0412797 0.0183142 0 0 0 -5.54881e-06 6.06418e-07 3.24488e-06 6.38015e-07 -1.06196e-06 2.09587e-07 0.00100144 0.000255221 0.000529449 0.004 718.847 -4.41306 
150 1 1 -0.0273271 -0.0370832 0.0158763 0 0 0 -4.99965e-06 3.89443e-06 1.00227e-06 4.72911e-07 4.28835e-07 1.25554e-06 -0.000294016 -2.57443e-05 0.000454961 0.004 344.63 3.69931 
38 1 1 -0.0197788 -0.0373719 0.0182823 0 0 0 -9.80815e-06 7.5808e-06 2.28367e-06 -1.55627e-07 1.42911e-07 2.70883e-06 0.000119349 -0.000368287 0.000386104 0.004 376.037 4.01687 
199 1 1 -0.0118545 -0.0370266 0.01765 0 0 0 -1.27621e-05 8.93505e-06 2.28974e-06 -3.45965e-07 -1.0459e-06 2.87463e-06 -0.000396672 7.54456e-05 -0.00031669 0.004 414.798 3.76403 
93 1 1 0.0137643 -0.0377759 0.0156808 0 0 0 -1.13402e-05 5.41012e-06 7.65283e-06 1.50123e-06 -2.7062e-06 -6.76749e-07 0.000173378 -0.000409454 0.000249651 0.004 671.717 -3.56056 
64 1 1 0.0280176 -0.0365092 0.0179286 0 0 0 -8.43559e-06 9.06295e-07 4.52415e-06 1.36822e-06 -1.97622e-06 -1.04332e-06 0.000734654 -0.000786646 0.00150103 0.004 760.363 -3.73777 
22 1 1 -0.0327402 -0.032422 0.0194567 0 0 0 -4.90176e-06 4.48108e-06 1.98997e-06 1.43142e-06 4.46631e-07 1.73921e-06 0.000309493 -0.000343354 0.00132535 0.004 327.016 2.93078 
174 1 1 -0.0224319 -0.0302105 0.0162617 0 0 0 -1.25363e-05 1.01782e-05 3.72994e-06 1.00618e-06 2.73288e-07 2.58906e-06 0.000383597 -0.000180926 0.000390149 0.004 361.575 3.87306 
32 1 1 -0.0042831 -0.0343967 0.0166775 0 0 0 -1.68958e-05 9.64531e-06 3.42061e-06 1.80902e-07 -2.54773e-06 9.05739e-07 -0.0012068 -0.000738549 0.000523969 0.004 506.231 1.44231 
128 1 1 0.0034746 -0.033132 0.0179959 0 0 0 -1.89553e-05 8.95041e-06 8.15344e-06 1.14056e-06 -3.98273e-06 -2.00499e-07 3.66807e-05 -0.00111741 -8.42798e-05 0.004 576.522 -0.877036 
88 1 1 0.0113687 -0.0304833 0.01771 0 0 0 -2.09154e-05 7.52387e-06 1.11582e-05 3.45234e-06 -4.35695e-06 -2.10661e-06 0.000352194 -0.000721228 0.000831918 0.004 667.585 -3.35746 
137 1 1 0.0208046 -0.0338185 0.0156334 0 0 0 -9.93119e-06 3.84697e-06 8.69901e-06 2.00463e-06 -2.83857e-06 -1.56324e-06 0.000793035 0.000320666 0.000594632 0.004 733.421 -4.31612 
154 1 1 0.033982 -0.0311387 0.0180551 0 0 0 -5.6864e-06 2.15263e-06 4.53641e-06 9.26383e-07 -1.84914e-06 -1.15462e-06 0.000432131 0.00031247 3.54041e-07 0.004 779.396 -2.43696 
52 1 1 -0.031991 -0.0252343 0.0161625 0 0 0 -8.42388e-06 8.37531e-06 5.92963e-06 1.82339e-06 1.14257e-06 2.95858e-06 -0.000463666 -0.000469564 0.000543321 0.004 325.567 2.65513 
80 1 1 -0.00960098 -0.0265065 0.0175805 0 0 0 -2.13397e-05 1.51398e-05 7.05199e-06 6.86984e-07 -1.9216e-06 2.74988e-06 -0.00078102 -0.00110436 -0.000154901 0.004 446.48 2.82464 
125 1 1 -0.00117362 -0.0267001 0.0173742 0 0 0 -2.05566e-05 1.18991e-05 6.37405e-06 4.37082e-07 -5.54531e-06 1.62548e-06 -0.000170744 -0.00103106 0.000578688 0.004 535.512 0.511586 
72 1 1 0.0179273 -0.0264316 0.015637 0 0 0 -1.87968e-05 7.40192e-06 1.72662e-05 2.88621e-06 -5.07893e-06 -4.7555e-06 0.00093809 -0.00146434 0.000524446 0.004 714.231 -4.1296 
34 1 1 0.0269647 -0.0287251 0.0154182 0 0 0 -1.06202e-05 3.68533e-06 8.62371e-06 1.74782e-06 -4.25669e-06 -2.46799e-06 0.000733646 -0.000416264 0.000821353 0.004 763.599 -3.12581 
218 1 1 -0.0395968 -0.0234663 0.0176916 0 0 0 -4.2612e-06 4.55191e-06 3.01771e-06 1.04801e-06 5.22203e-07 1.15614e-06 -8.43816e-05 -0.000451331 0.000426029 0.004 311.626 1.72347 
70 1 1 -0.0247175 -0.0230258 0.0185786 0 0 0 -1.43771e-05 1.34738e-05 7.63586e-06 2.1755e-06 2.98726e-07 5.08615e-06 -0.000260058 2.11344e-05 0.000490899 0.004 346.933 3.22448 
132 1 1 -0.0171323 -0.0242634 0.0164744 0 0 0 -1.66416e-05 1.45103e-05 7.17057e-06 1.20897e-06 -3.99587e-07 3.80304e-06 0.00017528 -0.000418364 0.000416068 0.004 383.016 3.6416 
196 1 1 0.0071665 -0.023789 0.0170602 0 0 0 -2.51547e-05 1.2346e-05 1.47522e-05 3.6228e-06 -7.15678e-06 -2.6519e-06 -0.00100102 -5.10364e-06 -0.00118333 0.004 638.598 -2.52116 
362 1 1 0.0243874 -0.0214292 0.0170617 0 0 0 -2.04443e-05 5.86167e-06 1.77196e-05 4.23751e-06 -5.79321e-06 -5.57932e-06 0.000881176 0.000658926 0.000652302 0.004 762.686 -3.18802 
49 1 1 0.0387627 -0.0248027 0.0179815 0 0 0 -5.64768e-06 2.16595e-06 4.80921e-06 9.55097e-07 -1.61938e-06 -1.26876e-06 1.12939e-06 -0.000225492 0.000218526 0.004 787.939 -1.82671 
173 1 1 -0.0431191 -0.0163148 0.0177078 0 0 0 -4.25882e-06 4.42908e-06 1.97656e-06 9.45647e-07 1.37728e-07 1.09455e-06 -0.000420964 -0.000577848 0.000998751 0.004 308.951 1.39532 
50 1 1 -0.0295064 -0.0167659 0.0182812 0 0 0 -1.13481e-05 1.57775e-05 1.20328e-05 2.62073e-06 4.27245e-07 4.63941e-06 0.000630412 0.000507172 -0.000713288 0.004 328.507 2.51832 
202 1 1 -0.0134619 -0.0172167 0.0161107 0 0 0 -1.68485e-05 1.64322e-05 1.31719e-05 1.74914e-06 -1.80985e-06 3.12879e-06 0.000152974 6.07228e-06 -0.000673137 0.004 415.745 3.14466 
86 1 1 -0.00524866 -0.0199157 0.0183757 0 0 0 -2.22963e-05 1.61917e-05 1.3385e-05 2.20537e-06 -4.15586e-06 1.26668e-06 0.00183079 0.000235835 -0.000951704 0.004 500.015 1.51578 
129 1 1 0.0138597 -0.0196295 0.0162861 0 0 0 -2.2933e-05 8.29948e-06 1.76281e-05 3.80248e-06 -5.6427e-06 -4.58459e-06 0.000354741 -0.00180323 0.000282478 0.004 692.925 -3.57767 
82 1 1 0.0291401 -0.0151358 0.0159325 0 0 0 -1.90423e-05 5.10669e-06 1.67583e-05 3.82078e-06 -5.82491e-06 -5.10422e-06 -0.000479124 -0.00120181 -7.93403e-06 0.004 774.682 -2.66918 
1 1 1 0.0424682 -0.0178049 0.0178803 0 0 0 -6.75148e-06 2.33732e-06 5.17838e-06 1.22595e-06 -1.51933e-06 -1.14816e-06 -0.000191398 -0.000210501 -0.000108318 0.004 792.245 -1.36005 
168 1 1 -0.0224798 -0.0136303 0.0164169 0 0 0 -1.40569e-05 1.65708e-05 8.98333e-06 1.95679e-06 -8.41227e-07 3.85851e-06 -0.000401483 -0.000271881 0.000544277 0.004 357.238 3.32665 
121 1 1 -0.00514897 -0.0120184 0.0174569 0 0 0 -2.0234e-05 1.74165e-05 1.62259e-05 2.43258e-06 -4.84963e-06 -1.13169e-06 -0.000921635 -0.000796841 0.00045167 0.004 508.93 1.11891 
28 1 1 0.00814309 -0.0139813 0.0183178 0 0 0 -2.74018e-05 1.75644e-05 2.45918e-05 4.39581e-06 -8.42101e-06 -7.66552e-06 0.000786115 -0.00210312 0.000628497 0.004 648.867 -2.96249 
42 1 1 0.0200408 -0.0148104 0.0172661 0 0 0 -2.59847e-05 9.4781e-06 2.36267e-05 5.48448e-06 -7.42912e-06 -7.58977e-06 -0.000334542 -0.000127352 0.000169502 0.004 738.086 -3.57935 
60 1 1 0.037628 -0.011647 0.016172 0 0 0 -1.52971e-05 1.40225e-06 1.53227e-05 4.30727e-06 -4.28298e-06 -5.72176e-06 -0.000221521 -0.00158827 -0.000805809 0.004 790.712 -1.48324 