ITEM: TIMESTEP
4800
ITEM: NUMBER OF ATOMS
890
ITEM: BOX BOUNDS mm mm mm
-0.05 0.05
-0.05 0.05
0 0.15
ITEM: ATOMS id type type x y z ix iy iz vx vy vz fx fy fz omegax omegay omegaz radius f_Temp[0] f_heatFlux[0] 
59 1 1 -0.000935253 -0.0460899 0.00387989 0 0 0 0.00580192 -0.0140652 0.0456947 -0.182117 -0.0168908 -0.0279808 1.83684 13.1771 3.61005 0.004 300 0 
170 1 1 -0.0178791 -0.0423685 0.00395742 0 0 0 0.0340437 -0.0186897 0.0347542 -0.0658932 0.0164618 -0.0234873 0.529349 -3.54075 -2.087 0.004 300 0 
15 1 1 -0.0103399 -0.0448157 0.00394855 0 0 0 0.0682229 -0.00736078 0.039568 0.0341464 -0.0137958 -0.0355155 -1.03096 16.2396 11.2679 0.004 300 0 
116 1 1 0.00608585 -0.0424639 0.0039771 0 0 0 -0.0328795 0.000261609 0.0063272 0.111567 0.0596914 -0.037828 1.08358 3.13617 9.10686 0.004 300 0 
158 1 1 0.0139175 -0.0439686 0.00393424 0 0 0 -0.0523385 0.0140801 -0.0124544 -0.0192407 -0.0143295 0.0111109 0.726579 2.20101 -4.16025 0.004 300 0 
98 1 1 0.021377 -0.0407968 0.00392709 0 0 0 0.0697437 0.0711892 -0.0133905 0.0890299 0.00138933 0.031197 2.34959 9.4759 -1.63932 0.004 300 0 
169 1 1 -0.0251283 -0.0387977 0.00384591 0 0 0 0.0418546 -0.0101338 0.0165707 0.0408664 0.00262865 0.0378907 5.60453 5.31341 -10.9939 0.004 300 0 
152 1 1 -0.00447621 -0.0390469 0.00397181 0 0 0 -0.040609 -0.0228391 0.0383868 -0.0563908 0.0277535 -0.0176611 1.27128 -0.177797 13.4743 0.004 300 0 
23 1 1 0.0149403 -0.0361874 0.00389028 0 0 0 0.0220476 0.0205131 0.0166315 0.0355841 -0.0363655 0.0124757 -3.08332 -5.7884 13.2413 0.004 300 0 
118 1 1 -0.0323876 -0.0326946 0.0039506 0 0 0 0.105453 -0.0901198 -0.00339429 0.0105603 0.0165648 0.0614398 0.484143 1.2358 -1.72097 0.004 300 0 
30 1 1 -0.0194274 -0.0334725 0.0038446 0 0 0 0.0371912 0.0217992 0.0215796 0.0133425 -0.0383549 -0.0140892 0.653538 5.57949 9.63685 0.004 300 0 
215 1 1 -0.00618584 -0.0313289 0.00390601 0 0 0 -0.00255004 -0.0271719 -0.00680759 -0.035275 0.0328122 0.00496466 3.67321 -1.56589 -11.4919 0.004 300 0 
74 1 1 0.00403836 -0.0335437 0.00392724 0 0 0 -0.127954 0.0185073 -0.0425234 0.0192667 0.0808757 0.0402657 -0.231139 0.795331 7.24001 0.004 300 0 
113 1 1 0.0186709 -0.0292937 0.00383481 0 0 0 -0.063249 0.0776758 0.0142556 -0.00650787 0.0302638 -0.0202309 -4.45084 -12.7238 7.64242 0.004 300 0 
198 1 1 0.0256241 -0.0340377 0.00398544 0 0 0 0.0769563 0.0710813 0.00415086 -0.141503 -0.0385721 -0.00562047 -11.7662 -11.9749 -3.34548 0.004 300 0 
161 1 1 0.0332697 -0.0319307 0.00388096 0 0 0 -0.0417847 -0.0541408 0.0251415 0.101212 0.00868279 0.0358573 0.803784 7.03225 11.4485 0.004 300 0 
12 1 1 -0.0248678 -0.0266912 0.00377225 0 0 0 0.0527166 -0.0372178 0.0150389 0.0652229 -0.0642284 -0.0614298 11.1195 13.8592 13.1311 0.004 300 0 
188 1 1 -0.0134984 -0.0283163 0.00401783 0 0 0 0.028265 0.045046 0.0100578 0.00373569 0.00224338 -0.0250164 2.63381 3.70191 -5.99572 0.004 300 0 
24 1 1 0.010843 -0.0294428 0.00387687 0 0 0 -0.0813092 -0.0405683 -0.0341356 -0.0271206 0.0272333 -0.0235621 -4.68391 0.159381 -0.172801 0.004 300 0 
183 1 1 0.0383414 -0.025465 0.00399405 0 0 0 0.0229559 0.0228881 -0.00693676 -0.0127825 -0.0116308 -0.0136893 -2.16436 4.34668 -2.35156 0.004 300 0 
162 1 1 -0.0404398 -0.021838 0.00388477 0 0 0 0.0187124 -0.041355 0.00128719 -0.00358742 0.0184681 0.0655703 4.66636 5.83259 -4.02702 0.004 300 0 
8 1 1 -0.0325577 -0.0247009 0.00389083 0 0 0 0.0436206 -0.0933578 -0.0211413 0.0588702 -0.0291222 0.0452758 7.08429 5.30837 -4.27329 0.004 300 0 
148 1 1 -0.0184439 -0.022106 0.00397715 0 0 0 -0.00885029 0.0327153 0.0174548 0.0250709 -0.0191329 -0.0431872 2.08472 -3.98908 3.72073 0.004 300 0 
195 1 1 -0.00857713 -0.0221541 0.00393464 0 0 0 0.0223609 0.0310209 0.0105644 0.0259873 -0.0110399 0.0539981 0.0157151 3.23254 6.23221 0.004 300 0 
77 1 1 -0.00125392 -0.0251509 0.00394863 0 0 0 0.0335991 -0.0495391 0.00059689 0.0168238 0.0389398 -0.00617372 5.57945 -8.05925 5.22607 0.004 300 0 
179 1 1 0.0063561 -0.0230062 0.0039879 0 0 0 0.003342 0.0409514 0.0165259 0.0467761 0.0966156 -0.0651949 10.2932 -2.19166 5.98962 0.004 300 0 
95 1 1 0.0155211 -0.0206382 0.00388848 0 0 0 0.0732247 -0.080095 0.0100786 0.069416 -0.0939096 -0.0142067 -18.462 -12.8783 -0.946591 0.004 300 0 
76 1 1 0.023597 -0.0231409 0.00392074 0 0 0 -0.0443848 0.043903 0.01109 0.0807342 0.00855341 -0.0519557 -11.7142 -16.6958 -19.339 0.004 300 0 
53 1 1 -0.0285466 -0.017885 0.00397817 0 0 0 0.0136233 -0.0799801 -0.00685452 -0.0134143 0.0157495 0.017158 2.51119 -2.9566 5.90378 0.004 300 0 
213 1 1 -0.0135117 -0.0159505 0.00419353 0 0 0 -0.0142143 0.0167341 0.0336703 0.00396529 -0.00411318 0.020749 -0.0773596 7.65887 3.23015 0.004 300 0 
96 1 1 0.0212447 -0.0152415 0.00395999 0 0 0 0.0347247 -0.051365 0.014447 -0.00708103 -0.0645494 0.0301855 6.12582 8.62246 -2.47093 0.004 300 0 
100 1 1 0.0335232 -0.0191218 0.00396629 0 0 0 -0.0590294 -0.0481787 -0.0238208 0.0425307 -0.0327045 -0.0643209 -5.20442 -5.97711 -4.4835 0.004 300 0 
167 1 1 0.042256 -0.0182729 0.00387982 0 0 0 -0.00489278 0.00335872 0.016041 -0.0292773 -0.00719563 0.0666506 -15.0739 9.96824 -1.9175 0.004 300 0 
65 1 1 -0.0437527 -0.014674 0.00390088 0 0 0 0.0227253 -0.0355462 0.005769 0.0106372 0.0167156 0.0744252 -1.69756 -3.83175 4.5205 0.004 300 0 
102 1 1 -0.0359274 -0.0150082 0.00386327 0 0 0 0.0271329 0.0145712 -0.00832396 -0.00855021 0.0951113 -0.0119745 10.8546 5.51723 -0.278745 0.004 300 0 
220 1 1 -0.0213394 -0.0146898 0.00395701 0 0 0 -0.0216327 0.0116327 0.0434806 0.00576874 0.023661 -0.0337339 -0.782381 -4.15216 1.87902 0.004 300 0 
144 1 1 -0.00572952 -0.0147764 0.003825 0 0 0 -0.0120348 0.0289157 0.0199053 0.0279274 0.0547231 -0.0094701 -2.23782 -5.51921 -2.92348 0.004 300 0 
5 1 1 0.0094014 -0.0156627 0.00391447 0 0 0 0.0312371 -0.0491112 -0.00158899 0.0881719 -0.0530147 -0.0199952 2.7572 1.09559 5.47936 0.004 300 0 
194 1 1 0.0287537 -0.0127691 0.00385818 0 0 0 -0.00685557 -0.0282301 -0.0312619 0.0181778 0.0175109 0.0666931 -4.4893 0.427125 7.9018 0.004 300 0 
37 1 1 0.0365835 -0.0117724 0.00384404 0 0 0 -0.0145929 0.0115079 0.00423426 0.0593353 -0.039134 0.0344009 -2.03275 -10.1567 3.32704 0.004 300 0 
219 1 1 0.0447657 -0.010786 0.0039239 0 0 0 -0.00560433 0.0312981 -0.00168009 -0.0530816 -0.0858394 -0.0279691 15.2418 -3.54354 5.84536 0.004 300 0 
636 1 1 -0.0455497 -0.00704155 0.00380985 0 0 0 -0.00452873 -0.0516674 -0.0201148 0.00842853 0.00221957 0.0144198 2.97979 -1.11128 -2.26177 0.004 300 0 
124 1 1 -0.0298685 -0.00997844 0.0039223 0 0 0 0.0796749 -0.0695486 0.0358767 0.0604693 -0.0622838 0.00874766 7.89968 8.12352 1.14609 0.004 300 0 
39 1 1 -0.0163036 -0.00858454 0.00391686 0 0 0 -0.0147103 0.0132552 0.0310745 -0.0189792 0.0153701 -0.0696671 -1.5656 -2.52412 -4.35968 0.004 300 0 
171 1 1 -0.00309276 -0.00630172 0.00385737 0 0 0 -0.0955086 -0.0660081 0.00919213 -0.0620307 -0.0598328 0.0694979 6.99726 -2.03075 -4.39722 0.004 300 0 
26 1 1 0.00341146 -0.0106192 0.00383069 0 0 0 -0.0339338 -0.0403742 0.0219421 0.119253 -0.00503835 0.094747 3.43165 -3.66292 9.94006 0.004 300 0 
200 1 1 0.0148249 -0.00989925 0.00385182 0 0 0 -0.0756537 -0.0193533 -0.00479729 -0.0366727 -0.0547912 -0.0494823 0.474036 -14.9289 4.15698 0.004 300 0 
21 1 1 0.0228543 -0.00751738 0.00393185 0 0 0 -0.0150204 -0.032673 0.00695651 -0.0888817 -0.0536116 -0.0640667 -0.223106 3.764 12.1742 0.004 300 0 
140 1 1 -0.0354153 -0.00379037 0.00392167 0 0 0 0.0104692 0.0447194 0.0360654 0.027225 0.0168102 -0.0267654 -3.38248 8.54736 2.59997 0.004 300 0 
119 1 1 -0.027445 -0.00250428 0.00396284 0 0 0 0.0432992 -0.0522415 0.0443098 0.023112 -0.0560024 -0.0487541 5.51866 9.6562 -10.0445 0.004 300 0 
207 1 1 -0.0195381 -0.00145229 0.00382162 0 0 0 0.05763 0.0539048 0.0153998 -0.0555007 -0.0104306 -0.0300361 -4.34988 13.3258 -4.44253 0.004 300 0 
69 1 1 -0.00904956 -0.00122826 0.00396697 0 0 0 -0.0627156 -0.0711696 0.019242 -0.266768 0.0549294 -0.018824 -4.03087 6.7521 1.86247 0.004 300 0 
221 1 1 0.0084435 -0.00381338 0.00395415 0 0 0 -0.00953137 0.0417786 0.0122085 -0.0115146 0.15485 -0.0798902 6.32603 -1.06974 -15.4575 0.004 300 0 
457 1 1 0.0169783 -0.00232286 0.00393277 0 0 0 -0.0807907 -0.0574652 0.0183007 -0.030145 -0.0412762 -0.0177351 4.48989 -6.16955 9.6141 0.004 300 0 
17 1 1 0.0303286 -0.00500007 0.00380074 0 0 0 -0.00591546 -0.0246334 -0.0390645 -0.0449307 0.0591187 0.139582 -1.51145 -3.65723 -8.63084 0.004 300 0 
155 1 1 0.0381414 -0.00209499 0.00385522 0 0 0 -0.0956481 -0.13119 -0.0176229 -0.0420106 -0.0548327 0.199918 -3.20962 -2.71438 2.86339 0.004 300 0 
665 1 1 0.0459991 -0.00305015 0.00380865 0 0 0 -0.0292172 0.0439881 -0.00796756 -0.0520614 -0.161782 0.112699 -20.97 -7.62205 1.98814 0.004 300 0 
223 1 1 0.0109271 -0.0448753 0.0112073 0 0 0 0.0111545 0.0278358 0.0275874 -0.0336661 -0.014313 0.0116075 3.85169 12.8981 -4.36451 0.004 300 0 
89 1 1 -0.0121147 -0.0366132 0.00394633 0 0 0 -0.0330416 -0.0258375 -0.0278636 0.0030799 -0.0649816 0.10124 -3.30417 -0.247422 -7.41745 0.004 300 0 
2 1 1 0.00140092 -0.038526 0.00945801 0 0 0 0.0204051 0.0722081 0.0906764 0.0961129 -0.0240259 -0.0511703 -17.904 -3.60321 13.0066 0.004 300 0 
120 1 1 0.00934218 -0.0374606 0.00923996 0 0 0 -0.0803592 -0.00511947 -0.0147761 -0.157154 -0.0276599 -0.0500537 -0.414949 5.66152 -5.51338 0.004 300 0 
9 1 1 -0.0257185 -0.0327133 0.00868226 0 0 0 0.0816657 -0.00435752 0.0621043 0.0988769 0.0418814 0.1309 -1.84561 -11.6917 -1.08573 0.004 300 0 
47 1 1 -0.00100645 -0.0310433 0.00986249 0 0 0 -0.0999355 0.0460221 0.08099 -0.00426919 0.0184237 0.0199518 6.51251 11.1542 7.94898 0.004 300 0 
214 1 1 -0.0377304 -0.0266665 0.00946003 0 0 0 0.057289 -0.0686607 -0.0218404 0.161319 -0.0406069 0.057584 -11.9484 -1.53476 -5.49694 0.004 300 0 
101 1 1 -0.0194048 -0.027882 0.00936574 0 0 0 0.0719134 0.0164552 0.0313232 -0.0702596 0.0014109 0.0502528 3.05605 -0.532065 -9.67306 0.004 300 0 
48 1 1 0.0236164 -0.0289055 0.00979281 0 0 0 -0.0792022 -0.0202796 0.0721866 0.0552214 -0.0680434 -0.0036782 8.63859 3.00915 -9.96994 0.004 300 0 
75 1 1 0.0304112 -0.0255572 0.00743196 0 0 0 -0.0729628 -0.0438199 0.0426039 -0.0411924 -0.00226528 -0.0637225 -3.49169 12.9012 1.1736 0.004 300 0 
33 1 1 -0.0133241 -0.0229667 0.0102667 0 0 0 0.0107813 0.0543472 0.0742761 -0.243534 0.158871 -0.0899651 0.287153 0.842019 6.30562 0.004 300 0 
46 1 1 -0.0342057 -0.0196306 0.00991174 0 0 0 0.0655619 -0.0543213 -0.0989927 -0.0519687 0.132274 0.222612 -6.17111 -18.2186 -4.70416 0.004 300 0 
10 1 1 0.00108296 -0.0176667 0.00643925 0 0 0 -0.042925 0.00852227 0.0907862 0.0495185 0.0341842 -0.0540072 -6.08289 7.20135 -8.87846 0.004 300 0 
54 1 1 0.0147938 -0.0147915 0.00999324 0 0 0 -0.00772064 0.0806235 0.113732 0.0881452 -0.120705 0.047021 -6.18746 -5.42483 12.6143 0.004 300 0 
11 1 1 0.0273964 -0.0185164 0.00904913 0 0 0 0.00465774 0.0215571 0.0106063 0.0442775 -0.039486 0.0694264 -9.76231 7.2171 -14.7614 0.004 300 0 
211 1 1 -0.00223683 -0.0113428 0.00998385 0 0 0 -0.0330218 -0.00149476 0.0731926 -0.0395959 0.102188 0.00707308 -2.32004 -3.94509 -6.4348 0.004 300 0 
71 1 1 -0.0380397 -0.00899921 0.00927805 0 0 0 0.0356721 0.00472685 -0.00401518 0.0535009 0.0650552 -0.029373 13.329 -3.19621 -9.16122 0.004 300 0 
62 1 1 -0.0232076 -0.00798815 0.00784522 0 0 0 0.00238267 -0.00715573 0.123103 -0.000331779 -0.0549315 -0.0121303 -14.1623 2.93537 -0.598522 0.004 300 0 
19 1 1 -0.00942809 -0.00898832 0.00771552 0 0 0 -0.0332419 -0.0176505 0.092674 -0.131286 -0.11557 0.0780323 7.20067 2.09583 3.04371 0.004 300 0 
187 1 1 0.00896977 -0.00955493 0.00933421 0 0 0 -0.0244261 0.0513129 0.104837 0.0662063 -0.207432 0.0316999 -21.9712 -2.82272 8.47006 0.004 300 0 
146 1 1 -0.0143418 -0.00309077 0.00959271 0 0 0 -0.0160683 -0.0153992 0.0854477 -0.0545152 0.034179 -0.0350368 -5.61261 -2.50054 -9.04314 0.004 300 0 
18 1 1 0.00247282 -0.00505931 0.00928744 0 0 0 -0.0981725 0.0103776 0.0414549 0.166534 -0.0173421 0.0118883 -3.46734 2.75192 16.2412 0.004 300 0 
185 1 1 -0.00564685 -0.0456966 0.0102713 0 0 0 0.0564165 -0.012557 0.0973747 -0.0461048 -0.00255676 -0.0105124 3.23554 -22.4856 -10.3608 0.004 300 0 
83 1 1 0.003226 -0.0460608 0.0105434 0 0 0 -0.013502 0.0208098 0.0883604 -0.0463 -0.0473509 -0.111032 23.3492 7.07794 1.99606 0.004 300 0 
105 1 1 -0.0138193 -0.0431219 0.0110061 0 0 0 -0.0717718 0.0449835 0.0438584 0 0 -0.0210391 -22.7738 -25.8471 1.60653 0.004 300 0 
217 1 1 0.0182847 -0.0422408 0.0110674 0 0 0 0.0307788 0.0260815 0.0262017 -0.0646907 -0.0646801 0.0323181 -3.0795 -3.70616 6.82556 0.004 300 0 
58 1 1 -0.0216758 -0.040661 0.0107206 0 0 0 0.0505405 0.00811824 0.0577208 -0.0189108 -0.0491605 0.0312048 -5.88136 -6.71782 0.0717369 0.004 300 0 
151 1 1 -0.00612867 -0.0378577 0.0116766 0 0 0 -0.0270635 -0.0531773 0.0592678 0.0486365 -0.126615 -0.0597499 -15.0765 0.0708012 4.13239 0.004 300 0 
117 1 1 0.0251477 -0.038538 0.0105992 0 0 0 0.00603635 0.0314578 0.00539027 -0.0488482 -0.118989 -0.043829 5.04044 -12.2354 2.45341 0.004 300 0 
13 1 1 -0.0328722 -0.0323806 0.0119111 0 0 0 0.0519998 -0.0186068 0.006695 0.0602369 -0.00956122 0.0610243 -1.09662 -1.41886 -0.890448 0.004 300 0 
6 1 1 -0.0161073 -0.0350394 0.0108076 0 0 0 0.0666704 0.00571047 0.045008 -0.0563099 0.026782 0.0155335 0.774473 2.42919 -12.2628 0.004 300 0 
41 1 1 0.014851 -0.0319462 0.0106982 0 0 0 -0.200222 0.0323612 0.0704151 0.293654 -0.215421 -0.0366045 -20.6122 -22.505 -1.03719 0.004 300 0 
163 1 1 0.0312705 -0.0337873 0.0113216 0 0 0 -0.00542876 0.0153205 0.0861381 -0.0257938 -0.0989184 0.00132652 -1.34865 2.99695 -5.28199 0.004 300 0 
193 1 1 -0.00949076 -0.0307359 0.0111033 0 0 0 0.115179 -0.0358138 0.0537064 -0.0557058 0.103116 -0.0448142 8.48752 -1.68545 -2.99268 0.004 300 0 
153 1 1 0.00710259 -0.0301056 0.0107165 0 0 0 -0.0877 0.0195345 -0.0284046 -0.132334 0.0361957 -0.0497575 -6.26096 9.64981 10.4493 0.004 300 0 
91 1 1 0.0125623 -0.0244634 0.0100531 0 0 0 -0.0179058 0.0245402 0.0298135 0.156231 -0.0848529 0.0803119 10.357 -0.544713 -19.0673 0.004 300 0 
210 1 1 0.0365697 -0.0281235 0.0116798 0 0 0 0.0191704 0.024395 -0.120297 -0.0717046 -0.0515364 -0.0373361 -3.90651 5.96574 3.40324 0.004 300 0 
160 1 1 -0.0411841 -0.0207524 0.013357 0 0 0 0.0077437 0.00856383 -0.172569 -0.0158394 0.173219 0.193797 -8.33896 2.5538 -3.36632 0.004 300 0 
108 1 1 -0.0271582 -0.0229111 0.0101515 0 0 0 0.0754701 -0.108516 0.0746276 0.0721457 -0.0500715 0.00592576 4.52632 -5.83435 -2.82174 0.004 300 0 
40 1 1 -0.00559789 -0.0238532 0.0111258 0 0 0 -0.0210078 0.0591805 0.0654859 0.24517 -0.0120508 -0.0565476 -9.6551 -4.7041 3.47046 0.004 300 0 
55 1 1 0.00226523 -0.0239567 0.0109538 0 0 0 -0.0574371 0.0234948 0.0706465 0.116238 -0.0412327 -0.0580633 -1.67646 11.0877 -10.2668 0.004 300 0 
112 1 1 0.0199555 -0.020703 0.010537 0 0 0 0.0034213 0.0427151 0.0423582 0.0266236 0.0188612 -0.0703587 13.741 15.7839 -17.4714 0.004 300 0 
131 1 1 0.0407934 -0.0216233 0.0108403 0 0 0 0.024714 0.0378274 0.058886 0.00476137 0.0376847 -0.0668491 10.5026 -1.6877 -7.67523 0.004 300 0 
104 1 1 -0.0206007 -0.0186425 0.0108266 0 0 0 -0.0195883 -0.0111595 0.0638023 0.125078 -0.0152717 -0.035065 -2.0536 3.55405 17.7799 0.004 300 0 
20 1 1 -0.00871298 -0.0165288 0.0109236 0 0 0 -0.0262876 0.110471 0.0523925 -0.00601579 -0.0459973 -0.0609433 -3.95843 5.21062 6.80348 0.004 300 0 
45 1 1 0.000780134 -0.0170695 0.0144542 0 0 0 -0.0271255 0.0275096 -0.0129235 -0.160233 0.0716164 0.00275331 6.73299 5.54816 -3.59646 0.004 300 0 
159 1 1 0.007834 -0.0183435 0.0111593 0 0 0 -0.0572894 0.114056 0.0346388 -0.102153 0.0576294 -0.133125 -0.116024 -5.34949 -3.16948 0.004 300 0 
136 1 1 0.0358411 -0.0155993 0.0106949 0 0 0 -0.045451 -0.0235792 -0.0382617 -0.0954181 -0.11632 0.0711437 -1.85906 -3.61016 21.4519 0.004 300 0 
177 1 1 -0.0440292 -0.0135612 0.0117204 0 0 0 0.0103072 0.0772518 0.0145969 -0.0471419 0.109999 0.141997 0.935168 6.91046 -3.17726 0.004 300 0 
4 1 1 -0.0298798 -0.013033 0.0112303 0 0 0 -0.000262689 -0.0352105 0.0639373 -0.0936857 -0.077078 0.00194075 -7.31685 -13.3771 5.44054 0.004 300 0 
168 1 1 -0.0232421 -0.0127674 0.0155653 0 0 0 -0.0419272 0.0359288 0.0558592 -0.0574052 -0.116712 -0.123633 0.33204 7.65147 -3.73922 0.004 300 0 
139 1 1 -0.0166629 -0.0118356 0.0111503 0 0 0 -0.0096326 -0.0613789 0.0146064 -0.00429922 0.0499375 -0.0869071 1.26401 2.6263 -11.8877 0.004 300 0 
56 1 1 0.0131621 -0.00970582 0.0165932 0 0 0 -0.026393 0.121373 0.132896 0.0396182 -0.0507012 -0.407265 -5.97857 -14.5213 -1.58024 0.004 300 0 
84 1 1 0.0238457 -0.0116784 0.0106881 0 0 0 -0.0522144 0.015659 0.0919201 0.0800992 -0.0364075 -0.00166871 5.91548 -13.5168 16.1781 0.004 300 0 
180 1 1 0.0437602 -0.0143162 0.0108981 0 0 0 0.0373221 0.105322 0.0482175 -0.00581814 0.171605 -0.0239506 8.81745 -2.2796 -4.72256 0.004 300 0 
197 1 1 -0.0456881 -0.00576089 0.0114608 0 0 0 -0.0227391 0.157646 -0.0473327 -0.0134482 0.0532308 0.109437 -9.4621 1.51118 3.06698 0.004 300 0 
7 1 1 -0.0199372 -0.00549712 0.0146524 0 0 0 0.0635369 -0.0879575 0.0886672 0.0482162 -0.0345929 -0.0985071 2.15364 -9.6747 -4.01209 0.004 300 0 
103 1 1 0.017678 -0.00681073 0.0104884 0 0 0 -0.173012 -0.0441347 0.0627936 0.0195844 -0.0708621 0.0189062 0.171184 -0.176033 7.81827 0.004 300 0 
156 1 1 0.0313964 -0.00917825 0.0103605 0 0 0 -0.0239554 0.00461707 -0.0310804 0.0637622 -0.240443 0.0978104 3.71441 6.0471 -1.11904 0.004 300 0 
157 1 1 0.0396655 -0.00737678 0.00956912 0 0 0 -0.123395 0.0335968 0.0761806 -0.0515796 0.0189269 -0.0580097 7.47117 -2.68885 -7.0884 0.004 300 0 
130 1 1 -0.0313896 -0.00369154 0.010763 0 0 0 0.024232 -0.0322682 0.0589208 0.0285177 -0.0695363 -0.0981996 -4.0333 -18.4897 -7.52271 0.004 300 0 
57 1 1 -0.00500925 -0.00324526 0.0109369 0 0 0 -0.0203636 -0.0287775 0.115595 -0.0877927 -0.0416515 0.0883739 -3.11987 1.07812 -7.68494 0.004 300 0 
31 1 1 0.0255507 -0.00391377 0.0104177 0 0 0 -0.0260283 -0.00835815 -0.0180789 0.0590937 -0.0401111 -0.00859006 3.10527 -0.434845 3.83419 0.004 300 0 
588 1 1 0.033108 -0.00162869 0.0102993 0 0 0 -0.0106853 0.0327719 -0.0142166 -0.00174617 0.0232563 0.00307157 -5.38269 0.314926 -4.65557 0.004 300 0 
63 1 1 0.0460665 -0.00334214 0.0116474 0 0 0 -0.0657512 -0.0285603 0.0141873 -0.00268229 -0.0174639 0.0650915 5.59311 -0.0617837 9.39816 0.004 300 0 
107 1 1 -0.00898733 -0.0450862 0.0175289 0 0 0 -0.0417976 -0.0358271 0.100877 -0.0197782 -0.128177 -0.14051 -5.73453 -5.7684 -2.71702 0.004 300 0 
222 1 1 -0.00126405 -0.0437532 0.0165614 0 0 0 0.0107422 -0.0553706 0.18587 -0.0342042 -0.0256639 0.0155622 -5.42473 -0.763994 -7.80716 0.004 300 0 
142 1 1 0.00596571 -0.0406492 0.0156391 0 0 0 -0.0311559 0.0152893 0.0713547 0.0580576 0.0387267 0.0715856 -2.59368 -3.20383 9.0688 0.004 300 0 
172 1 1 0.0119115 -0.0445793 0.0190681 0 0 0 0.0258302 0.0290015 0.00962576 0.0362101 -0.0458328 0.0500155 5.33843 -5.75397 -8.57937 0.004 300 0 
109 1 1 0.0193351 -0.0417459 0.0189399 0 0 0 0.0545055 0.0384734 0.0577426 0.00522862 -0.00891394 -0.041917 6.93358 -2.07057 2.65411 0.004 300 0 
150 1 1 -0.0273332 -0.037116 0.0150647 0 0 0 0.0370238 0.00831003 0.0406881 0.0645428 -0.0196954 0.009099 3.72568 -3.97996 0.190296 0.004 300 0 
38 1 1 -0.0197849 -0.0371323 0.0175585 0 0 0 0.0383108 -0.00852283 0.100962 -0.0673513 0.0186289 -0.00954952 -2.62369 -2.48841 -4.05489 0.004 300 0 
199 1 1 -0.0119099 -0.0374801 0.0170203 0 0 0 0.0191842 0.029399 0.0986816 0.0347377 -0.0751326 0.0525998 -8.99115 -0.665892 5.00665 0.004 300 0 
93 1 1 0.0132087 -0.0372278 0.0164066 0 0 0 -0.0122185 0.0240331 0.0772434 0.0479888 -0.111007 -0.0872404 -3.54791 5.65386 24.5329 0.004 300 0 
64 1 1 0.0281454 -0.0364608 0.0181362 0 0 0 -0.240079 -0.14365 -0.0682302 -0.0834994 -0.00307617 -0.0999686 -3.23272 -17.9902 9.92149 0.004 300 0 
174 1 1 -0.0232912 -0.0303175 0.0157855 0 0 0 0.0680956 0.0058617 0.112415 -0.103036 0.134844 0.0948601 6.29739 16.1524 0.18467 0.004 300 0 
128 1 1 0.00297725 -0.0334198 0.0164639 0 0 0 0.0244301 0.054701 0.0648561 0.0330247 0.101957 0.0366053 3.48633 6.77602 -11.4577 0.004 300 0 
88 1 1 0.0111236 -0.0296843 0.0174808 0 0 0 -0.0574018 0.0111044 -0.00601997 -0.00426399 0.0509415 0.0158672 5.74752 -4.41572 -9.89409 0.004 300 0 
137 1 1 0.0206034 -0.0343199 0.015706 0 0 0 -0.0685393 0.129194 -0.0763152 0.0181709 -0.0222349 -0.0446683 -13.8594 35.0539 12.6972 0.004 300 0 
52 1 1 -0.0326602 -0.0252939 0.0153229 0 0 0 0.0411826 0.0102061 0.0624621 -0.0213818 0.0847787 0.095871 10.9904 0.595521 5.20909 0.004 300 0 
80 1 1 -0.0108862 -0.0260162 0.0173241 0 0 0 0.0825364 -0.0158822 0.00547389 0.0334129 -0.00527263 -0.0530308 4.70549 -6.8851 -0.329157 0.004 300 0 
125 1 1 -0.00355092 -0.028965 0.0170854 0 0 0 0.136301 0.129938 0.169417 -0.0120917 0.0348705 -0.00909588 5.82772 0.581519 6.14348 0.004 300 0 
196 1 1 0.00433879 -0.0258001 0.0183255 0 0 0 -0.0170574 0.0969986 0.114689 -0.0924655 0.0169727 0.014424 0.639141 19.0498 8.07585 0.004 300 0 
72 1 1 0.0179855 -0.026298 0.0156849 0 0 0 -0.041958 0.122845 0.129052 0.298058 -0.201815 0.00141484 -2.57863 4.70044 -10.1887 0.004 300 0 
34 1 1 0.0277595 -0.027888 0.0162853 0 0 0 -0.0445429 -0.0304747 0.0697738 0.094109 -0.0596746 -0.045519 -25.1973 -0.227596 -19.2108 0.004 300 0 
70 1 1 -0.025921 -0.02196 0.0178309 0 0 0 0.0607323 -0.0288344 0.0822909 0.054803 -0.0526455 0.0346873 -3.24493 -3.41347 -7.21596 0.004 300 0 
132 1 1 -0.0184879 -0.0240453 0.0162265 0 0 0 0.0607183 -0.0194968 0.0344242 0.0425517 0.0337433 0.061068 11.4814 4.84799 6.37824 0.004 300 0 
129 1 1 0.0117461 -0.0217483 0.0174673 0 0 0 0.182286 0.0568548 0.117257 -0.0857719 -0.0341645 0.012372 -10.4258 18.4592 13.4608 0.004 300 0 
178 1 1 0.0324614 -0.0218477 0.0142108 0 0 0 -0.0519303 -0.0473242 0.0513711 0.0444496 -0.10203 -0.0333554 12.4454 -6.9113 5.86091 0.004 300 0 
49 1 1 0.0389857 -0.0242522 0.0180689 0 0 0 -0.029437 -0.0734917 0.0244669 0.01538 -0.0408244 0.00807969 16.3187 -13.9106 -1.22807 0.004 300 0 
173 1 1 -0.043222 -0.0159811 0.0194508 0 0 0 -0.00167866 0.06284 -0.0945299 0.00765102 -0.222493 -0.00376668 -3.91661 5.51853 10.0239 0.004 300 0 
50 1 1 -0.0299842 -0.0153698 0.0189437 0 0 0 0.027784 -0.0454788 0.0698298 0.0116878 0.0452666 -0.0233694 1.7702 2.17896 12.6724 0.004 300 0 
202 1 1 -0.0143382 -0.0173389 0.0164379 0 0 0 0.00878749 -0.0178797 0.0855409 0.0178527 0.0332735 -0.0899519 0.472925 2.31393 10.4255 0.004 300 0 
86 1 1 -0.0050582 -0.0206609 0.0183391 0 0 0 0.0726769 -0.0160309 0.0853164 -0.00785397 -0.0478442 -0.00633336 7.53279 6.52312 5.32713 0.004 300 0 
42 1 1 0.0192821 -0.0147105 0.0164856 0 0 0 -0.00683499 0.125862 0.1458 0.0964657 -0.0890025 -0.178979 -4.46653 14.1313 -0.616557 0.004 300 0 
1 1 1 0.0430055 -0.0168013 0.0183483 0 0 0 0.0199271 0.127782 0.00018367 0.0762468 0.175426 -0.184704 -0.91124 -1.12942 3.46737 0.004 300 0 
43 1 1 -0.0368347 -0.0142621 0.0151025 0 0 0 0.0774874 0.0164515 -0.0223289 -0.00637333 0.0604695 -0.0157773 -5.24381 0.124331 -22.2473 0.004 300 0 
29 1 1 -0.0170273 -0.0107916 0.0199762 0 0 0 -0.0194688 -0.0569651 0.0675977 0.100904 0.0223751 0.0165186 7.34419 -3.1103 -5.48023 0.004 300 0 
121 1 1 -0.00554436 -0.0127629 0.0171167 0 0 0 0.0294021 -0.0141818 0.105741 0.055566 -0.0988784 0.000750579 11.1618 0.137977 -0.952005 0.004 300 0 
28 1 1 0.00736623 -0.015261 0.018358 0 0 0 0.0299346 -0.00332804 0.0524541 0.0845102 -0.0293494 0.044333 -2.28497 3.21349 7.24864 0.004 300 0 
82 1 1 0.0295226 -0.0146583 0.0155517 0 0 0 0.0123856 -0.0295341 0.0715427 -0.26918 -0.111081 0.225001 7.25381 2.79041 12.156 0.004 300 0 
60 1 1 0.0381504 -0.0108013 0.0164893 0 0 0 -0.082389 -0.0592758 0.0205977 -0.0203912 -0.0414287 -0.0773321 1.15969 19.9642 -8.47837 0.004 300 0 
135 1 1 -0.0449725 -0.00838719 0.0187991 0 0 0 -0.0296802 -0.0181237 -0.0742541 -0.0367766 0.345004 0.172061 -6.47142 16.9532 -1.87117 0.004 300 0 
190 1 1 -0.029227 -0.00775074 0.0171607 0 0 0 0.0255271 -0.0379206 0.0311798 0.462021 0.0292529 -0.167661 8.00529 -10.9927 -0.870658 0.004 300 0 
145 1 1 -0.0113617 -0.00776136 0.0153221 0 0 0 -0.0641816 -0.0575614 0.0863601 0.0275449 -0.0162204 -0.0426589 -6.58664 -2.442 11.9178 0.004 300 0 
186 1 1 0.00246509 -0.0094146 0.0160595 0 0 0 0.0330088 0.0302068 0.0958318 0.0414967 -0.0574313 0.0432258 1.75395 10.186 -2.97657 0.004 300 0 
92 1 1 0.0453097 -0.00861203 0.0188151 0 0 0 -0.0453862 -0.0991427 -0.0420975 -0.00657926 -0.0228981 0.0205126 -1.24782 4.51001 0.540113 0.004 300 0 
192 1 1 -0.0461327 -0.000636453 0.0174612 0 0 0 0.0491377 0.012086 0.0666448 -0.0388765 0.056177 -0.0214771 8.11263 -13.693 2.36928 0.004 300 0 
87 1 1 -0.0390933 -0.0035141 0.0152705 0 0 0 0.014196 -0.0317882 -0.000510908 -0.0992049 0.043796 -0.0546732 6.4847 10.3971 -3.94955 0.004 300 0 
111 1 1 -0.00374867 -0.00516509 0.0185774 0 0 0 -0.0368933 -0.0137875 0.145796 0.107933 -0.000981288 0.0482559 -0.055965 -5.51147 11.2669 0.004 300 0 
106 1 1 0.00805204 -0.00390524 0.0147581 0 0 0 -0.0810104 0.015991 0.0832613 -0.0398873 -0.196222 -0.102617 20.6314 10.7474 10.1929 0.004 300 0 
191 1 1 0.0217962 -0.00569231 0.017118 0 0 0 -0.0349244 -0.0323079 -0.000562552 0.125271 0.139856 -0.045052 -0.642868 8.20956 -2.91834 0.004 300 0 
208 1 1 0.0323873 -0.0054869 0.0173897 0 0 0 0.00827404 -0.0144918 0.0597588 0.0724646 -0.0455562 -0.110932 -3.84213 3.42566 -1.17422 0.004 300 0 
133 1 1 0.0399974 -0.00310423 0.0165812 0 0 0 -0.0858385 -0.0341591 0.0364906 -0.0701904 -0.0515882 -0.00130096 -25.1309 -6.32099 -7.53729 0.004 300 0 
127 1 1 -0.00361779 -0.045992 0.0238007 0 0 0 0.0957563 -0.00462879 0.190524 -0.0824314 -0.0512341 -0.226287 -3.11538 -13.6562 -8.75078 0.004 300 0 
126 1 1 -0.0159454 -0.0432193 0.0207908 0 0 0 0.0044424 0.0110641 0.127342 -0.0120224 -0.0289558 0.0210439 1.01125 -3.39334 1.8046 0.004 300 0 
371 1 1 -0.00889168 -0.0402129 0.0237907 0 0 0 0.0178989 -0.0444752 0.0703096 -0.0608953 -0.139169 0.0769963 4.17588 11.412 -7.80237 0.004 300 0 
143 1 1 0.00312573 -0.0419623 0.0228931 0 0 0 0.10585 -0.0970582 0.137707 -0.120424 0.00867571 -0.0638071 0.213284 12.6704 7.85655 0.004 300 0 
110 1 1 -0.0290993 -0.0358003 0.0226858 0 0 0 0.232784 -0.0912055 0.0877051 0.0417717 -0.0473966 0.016852 17.1456 6.5142 -16.2215 0.004 300 0 
32 1 1 -0.00358599 -0.03667 0.0191895 0 0 0 -0.00865036 0.0422553 0.0237724 -0.14854 0.00606432 0.022305 2.36393 -9.12249 8.64585 0.004 300 0 
114 1 1 0.0101422 -0.0384645 0.0236566 0 0 0 0.0167741 0.0707569 0.0567601 0.00251841 0.00453923 0.106919 0.0408591 -4.84354 4.32264 0.004 300 0 
35 1 1 0.0242671 -0.0391433 0.0245829 0 0 0 -0.0135619 0.0160492 0.179357 -0.0488502 -0.00160755 -0.153317 -0.171476 -7.79553 2.37556 0.004 300 0 
390 1 1 -0.00935094 -0.0324141 0.0225554 0 0 0 -0.0213351 0.010408 0.171688 0.0106211 0.040809 0.00525329 22.6396 12.4986 -3.14141 0.004 300 0 
216 1 1 0.00626065 -0.0316142 0.0234374 0 0 0 -0.0434781 0.116368 0.103257 -0.0504401 0.0672891 0.0615633 -8.16339 5.04115 7.97753 0.004 300 0 
149 1 1 0.0153617 -0.0326318 0.0234304 0 0 0 -0.0703415 0.141337 0.112722 -0.0521388 0.0164791 0.0917129 2.5632 10.2945 13.7207 0.004 300 0 
154 1 1 0.034455 -0.0306973 0.0192167 0 0 0 -0.0239496 -0.0412494 0.0063767 0.0913835 0.0634697 0.0162176 -0.844308 7.18904 13.6776 0.004 300 0 
22 1 1 -0.0347634 -0.0302585 0.0215004 0 0 0 0.0473516 -0.232524 -0.206148 0.197752 0.192009 -0.0110629 -10.3178 -13.5008 -3.50915 0.004 300 0 
134 1 1 -0.0271089 -0.0282336 0.0223645 0 0 0 0.0463099 -0.0060269 0.157756 -0.0319628 -0.00528356 0.000951837 -10.5056 -13.9328 24.9531 0.004 300 0 
85 1 1 -0.0167735 -0.0304034 0.02058 0 0 0 -0.0192548 0.0261788 0.160293 -0.0543844 -0.111304 -0.0312967 -4.63769 -9.00624 -4.51457 0.004 300 0 
182 1 1 -0.00154487 -0.0306323 0.0246027 0 0 0 -0.123926 -0.0123403 0.14805 -0.0168139 0.00245036 0.0471902 12.8806 11.3536 14.3903 0.004 300 0 
218 1 1 -0.0399557 -0.0229957 0.0208473 0 0 0 0.0721795 0.0428108 -0.103374 -0.0186348 -0.0599431 -0.214293 -2.0071 -0.850367 4.90612 0.004 300 0 
51 1 1 -0.0323093 -0.0223573 0.0226185 0 0 0 0.0952055 0.00894265 0.143994 -0.112327 0.121249 0.0441301 -0.753614 -3.41225 -24.6811 0.004 300 0 
204 1 1 -0.0149117 -0.0225738 0.0231712 0 0 0 0.0832921 -0.0828513 0.0672603 -0.0439058 0.0854751 0.120622 -5.5208 -5.82764 0.478145 0.004 300 0 
36 1 1 -0.00734154 -0.0250532 0.024506 0 0 0 0.123095 -0.00990092 0.110596 -0.00762408 0.0780962 0.00999497 -18.9367 0.935126 -3.33667 0.004 300 0 
138 1 1 0.000321652 -0.0228179 0.0244282 0 0 0 0.118312 -0.0128191 0.217431 -0.0765313 0.108705 0.0854911 -2.50546 -0.704805 -6.48862 0.004 300 0 
25 1 1 0.0090342 -0.0242317 0.0245502 0 0 0 0.0617383 0.00686857 0.147472 -0.0311524 0.0123618 -0.0718007 11.3757 -24.5056 -10.8329 0.004 300 0 
209 1 1 0.0168876 -0.0237231 0.0232298 0 0 0 -0.0611798 0.1706 0.19729 -0.0167677 0.0712214 0.0281235 -8.86387 24.6949 3.35659 0.004 300 0 
362 1 1 0.0247467 -0.0206987 0.0175287 0 0 0 -0.196674 -0.00631588 -0.0460377 -0.0849204 0.137261 0.0211022 11.9496 -9.44349 -9.40471 0.004 300 0 
3 1 1 0.0315415 -0.0238182 0.0218871 0 0 0 -0.0329132 -0.0654037 0.0961885 -0.0396908 -0.00979266 -0.0337544 14.8177 19.1093 -9.45779 0.004 300 0 
14 1 1 -0.0209274 -0.017392 0.0218789 0 0 0 0.040628 -0.0793196 0.145932 0.132443 0.0131741 -0.122633 -2.35541 -3.0712 6.51525 0.004 300 0 
147 1 1 -0.00986291 -0.0163857 0.0229172 0 0 0 0.0252264 -0.0418113 0.0784336 -0.185722 0.0830507 -0.0705044 9.56081 -10.4277 -1.56884 0.004 300 0 
16 1 1 0.0139891 -0.016007 0.0228541 0 0 0 -0.106826 0.0351273 0.229652 0.092235 0.00176721 -0.101898 -2.35202 -15.8603 6.75539 0.004 300 0 
94 1 1 0.0219525 -0.0156319 0.0238113 0 0 0 -0.0151651 -0.108987 0.0549469 0.0424245 -0.0525767 -0.162108 11.9931 15.2574 -20.6083 0.004 300 0 
205 1 1 0.0296131 -0.0163717 0.0252373 0 0 0 -0.0420279 -0.106448 0.0542624 0.225967 0.00799589 -0.0086195 -6.47469 0.964537 -6.03598 0.004 300 0 
97 1 1 0.0354133 -0.0172458 0.0200813 0 0 0 -0.0232338 -0.0898195 0.0295569 0.184567 -0.0227353 -0.00366014 13.752 0.726834 6.68152 0.004 300 0 
68 1 1 9.57623e-05 -0.015163 0.0220867 0 0 0 0.0683411 -0.0945718 0.0494955 0.00831452 -0.0434007 0.0492355 5.76757 -0.766879 5.68078 0.004 300 0 