ITEM: TIMESTEP
8800
ITEM: NUMBER OF ATOMS
890
ITEM: BOX BOUNDS mm mm mm
-0.05 0.05
-0.05 0.05
0 0.15
ITEM: ATOMS id type type x y z ix iy iz vx vy vz fx fy fz omegax omegay omegaz radius f_Temp[0] f_heatFlux[0] 
59 1 1 -0.000720814 -0.0461023 0.00395541 0 0 0 -0.000322337 -0.000763496 -0.000202008 0.000308463 -0.00213859 -0.000636672 0.0914589 -0.539106 0.228451 0.004 300 0 
170 1 1 -0.0173492 -0.0426438 0.0039723 0 0 0 0.000424159 -0.000261209 -0.000386289 -0.00112759 -0.000678703 0.000219798 -0.055189 0.412831 0.177491 0.004 300 0 
15 1 1 -0.00975304 -0.0449621 0.00394062 0 0 0 -0.00136963 -0.00184154 0.000487295 0.00185892 -0.00162007 -0.00212029 0.340884 -0.626018 -0.673485 0.004 300 0 
116 1 1 0.00648778 -0.0428313 0.00396079 0 0 0 -0.00076716 0.00113956 0.00138491 -4.66816e-05 -0.00262524 -0.0035724 -0.216001 -0.111555 0.315093 0.004 300 0 
158 1 1 0.0143645 -0.0437585 0.0038886 0 0 0 -0.00119762 0.00218117 0.00404869 0.000298038 -0.000940484 -0.00107989 -0.750296 -0.370633 0.0472418 0.004 300 0 
98 1 1 0.0216831 -0.0406499 0.00393757 0 0 0 -0.000388952 0.000625657 0.000973639 0.00193315 0.00084654 0.000598227 -0.0749542 0.0652962 -0.0735482 0.004 300 0 
169 1 1 -0.0244297 -0.0390711 0.00391053 0 0 0 -0.000663998 -0.00136294 0.000761787 -0.000564685 -0.00075672 0.000454569 0.302673 -0.365332 0.11301 0.004 300 0 
89 1 1 -0.0118045 -0.0369284 0.00395561 0 0 0 1.24642e-05 -0.0010683 -0.000329974 -1.17179e-06 -0.00366311 0.00115827 0.341112 -0.261637 -0.0394418 0.004 300 0 
152 1 1 -0.00417011 -0.0390235 0.00391651 0 0 0 -0.000678836 -0.00141479 0.000197238 -0.000356923 -0.00257107 0.00124449 0.482847 -0.322426 -0.0769235 0.004 300 0 
23 1 1 0.0153594 -0.0358763 0.00391616 0 0 0 -0.00126764 0.00123951 0.000409748 0.00246431 -0.00311118 -0.00467161 -0.210327 -0.125685 -0.0168635 0.004 300 0 
118 1 1 -0.0307513 -0.0342507 0.00393944 0 0 0 0.00202178 -0.000447453 0.000700506 -0.000301068 -0.00127586 -0.000271326 0.0616532 0.508775 -0.508345 0.004 300 0 
30 1 1 -0.0188722 -0.0333799 0.00395547 0 0 0 0.000509354 -0.00270393 -0.00034589 0.00054172 0.000396766 0.000299139 -0.04411 0.13057 0.308633 0.004 300 0 
215 1 1 -0.0060518 -0.0313401 0.00391133 0 0 0 0.00117213 0.000892652 -0.00106924 -0.00107075 0.00240512 0.00296445 -0.827462 0.32907 -0.40969 0.004 300 0 
74 1 1 0.00185021 -0.0338242 0.00391005 0 0 0 -0.00103947 -0.000283467 0.00134938 -0.000125501 -0.00240044 -0.000277475 -0.049393 -0.223617 0.773702 0.004 300 0 
24 1 1 0.00918314 -0.0308311 0.00393008 0 0 0 -0.000656833 0.00168108 0.000778953 -2.44789e-05 -0.000787801 -0.00458856 -0.613496 0.132421 -0.564592 0.004 300 0 
198 1 1 0.025873 -0.0338931 0.0039617 0 0 0 0.000974871 -0.00118213 -0.000467035 0.00144781 0.00221265 0.000582232 0.342771 0.27092 0.369555 0.004 300 0 
161 1 1 0.0335004 -0.0316444 0.00391302 0 0 0 -0.00102048 0.000240122 -0.000334313 0.00229503 -0.000276632 0.00215355 -0.0179896 -0.261743 0.186768 0.004 300 0 
8 1 1 -0.032282 -0.0264437 0.00398472 0 0 0 0.000731735 -0.000562217 0.000717343 -0.00261572 -0.00195292 0.000454039 -0.185293 0.37437 0.531606 0.004 300 0 
12 1 1 -0.0244248 -0.0277313 0.00385021 0 0 0 -0.000361869 -0.00173889 0.000559907 -0.00178503 0.00137866 0.00282809 0.510487 -0.188338 -0.0210401 0.004 300 0 
188 1 1 -0.0131815 -0.0277926 0.00396797 0 0 0 0.00236193 -0.00304515 -0.000100894 -0.00270707 0.00425406 0.00432406 0.100667 0.157238 0.103201 0.004 300 0 
77 1 1 -0.00012542 -0.0260898 0.00390529 0 0 0 0.00155763 0.000317748 -0.000235067 0.0058794 -0.00181691 -0.00287624 0.486833 -1.05615 0.0757293 0.004 300 0 
113 1 1 0.0165722 -0.0280186 0.00388019 0 0 0 -0.000149124 -0.000197466 -0.000244558 0.00121485 -0.00219244 -0.0035901 -0.00786972 -0.0521311 -0.106202 0.004 300 0 
183 1 1 0.0384289 -0.025411 0.00393122 0 0 0 -0.000352435 0.000387614 4.70652e-05 0.000791911 -0.000298988 0.00440721 -0.103693 -0.00321779 -0.121734 0.004 300 0 
162 1 1 -0.0396325 -0.0234344 0.00390623 0 0 0 -0.00105029 -0.00103929 -0.000466806 0.000995416 -0.00237896 -0.00124775 0.147499 -0.544057 -0.234984 0.004 300 0 
53 1 1 -0.0272285 -0.0202868 0.00395037 0 0 0 0.000480139 -0.00023566 0.000598342 -0.00523395 0.00104922 0.000499286 -0.334366 0.417718 -0.0684958 0.004 300 0 
148 1 1 -0.0187675 -0.0221012 0.00392322 0 0 0 0.00354511 -0.00555981 0.000129334 -0.00205132 0.00281448 0.00313294 1.52017 1.00417 0.886875 0.004 300 0 
195 1 1 -0.00745038 -0.0218211 0.00393866 0 0 0 0.00431372 0.0103828 0.000886296 -0.000889123 0.000423704 -0.000742362 -2.62582 1.09698 -3.27253 0.004 300 0 
179 1 1 0.00728514 -0.0231217 0.00393771 0 0 0 0.000672179 0.00194706 0.000648512 -4.75429e-05 0.00173664 -0.00220951 0.475305 0.18205 0.034827 0.004 300 0 
95 1 1 0.0148466 -0.0203159 0.00393865 0 0 0 0.00125829 8.47635e-05 -0.000442164 0.000843583 -0.00224716 -0.00392742 0.0636677 0.220444 -0.284088 0.004 300 0 
76 1 1 0.0230003 -0.0232788 0.00397314 0 0 0 0.00105664 -0.0023546 -0.000474046 -0.00108508 -0.00182019 -0.00297311 0.41605 0.325822 -0.0602804 0.004 300 0 
100 1 1 0.032585 -0.0200695 0.00390208 0 0 0 -0.00119105 -0.000251158 -0.000645698 -0.000427331 -0.00169461 0.000198349 -0.136963 -0.207118 0.0822629 0.004 300 0 
65 1 1 -0.0430802 -0.0163031 0.00393756 0 0 0 -0.000237369 -0.001562 -0.00149606 0.000326708 -0.00124715 -0.001759 0.0995508 -0.0453215 0.0697448 0.004 300 0 
102 1 1 -0.0352074 -0.0153503 0.00392747 0 0 0 -0.000853646 0.00110779 0.00149211 0.00388965 -0.00690692 -0.00345158 -1.35379 -0.280658 2.80795 0.004 300 0 
213 1 1 -0.0132413 -0.0163357 0.00398187 0 0 0 -0.00375847 0.00243981 -0.000441939 0.00131285 0.000397731 0.000458485 -0.322119 -0.891515 1.69081 0.004 300 0 
10 1 1 0.00107446 -0.0182673 0.00476104 0 0 0 -0.00124108 0.000692206 0.000247298 0.00190985 0.00339936 1.96575e-05 -0.305761 -0.276501 0.392577 0.004 300 0 
5 1 1 0.00877362 -0.015283 0.00390329 0 0 0 0.00189326 0.0019443 -0.00070844 -0.000384734 0.000571449 -0.00146707 -0.696385 0.361229 -0.209497 0.004 300 0 
96 1 1 0.0211413 -0.0155135 0.00395085 0 0 0 0.00189251 -0.0010112 0.00052379 -1.89129e-06 -0.00150736 -0.00258301 0.225895 -0.288338 0.0384758 0.004 300 0 
167 1 1 0.0421773 -0.0184141 0.0039231 0 0 0 0.00110624 -0.000162301 -0.00070419 -0.00208862 -0.000229814 0.0030568 0.163453 0.366031 -0.147367 0.004 300 0 
124 1 1 -0.0289003 -0.0105474 0.00393439 0 0 0 -0.00615151 0.00643146 -0.00135864 0.00287739 -0.000320898 -0.00233887 -1.26832 -1.68527 -2.33492 0.004 300 0 
220 1 1 -0.0217163 -0.0145872 0.00397838 0 0 0 0.000907467 -0.000259244 -0.00149575 -0.00228395 -1.66587e-05 0.00712679 0.332403 0.0301408 -0.0517579 0.004 300 0 
144 1 1 -0.00542217 -0.013814 0.00389137 0 0 0 -0.00232826 -4.13239e-05 -0.00137468 0.00225686 0.00186313 0.00398343 0.285269 -0.509908 0.107453 0.004 300 0 
26 1 1 0.00252121 -0.0104966 0.00392135 0 0 0 0.000331316 0.000820717 -0.00190778 -0.000226407 0.00527397 0.00323537 -0.166191 0.0973589 0.6601 0.004 300 0 
194 1 1 0.0287171 -0.0131202 0.00393857 0 0 0 0.000833513 -0.000984652 -0.000209368 -0.000642601 -0.000724993 -0.00126218 0.0967305 0.474864 -0.0886074 0.004 300 0 
37 1 1 0.036659 -0.0122171 0.00393568 0 0 0 -0.000330696 0.00152992 0.000672818 -0.0035593 0.00127949 0.00246876 -0.508946 -0.103749 -0.786023 0.004 300 0 
219 1 1 0.0447069 -0.0109216 0.00391245 0 0 0 0.000900151 0.00075795 -0.00094847 0.000228091 0.00104896 0.00101268 0.00526665 -0.0108034 0.226156 0.004 300 0 
636 1 1 -0.0451953 -0.00866728 0.00392106 0 0 0 0.000332242 -0.0009202 -0.00200677 -0.00241052 0.000260229 -0.000338653 -0.00556063 0.244083 -0.130913 0.004 300 0 
39 1 1 -0.0161728 -0.00891901 0.00388875 0 0 0 -0.00142766 0.00363233 -0.00181725 0.00301829 0.00158724 -0.00371913 -0.905457 -0.325084 0.910456 0.004 300 0 
171 1 1 -0.00397495 -0.00600248 0.00391809 0 0 0 -0.00141582 0.000718061 0.00159801 0.00117372 0.000620969 0.00541097 0.30739 0.640198 -0.452328 0.004 300 0 
200 1 1 0.0145687 -0.00984768 0.00396089 0 0 0 0.00301848 0.000314565 -0.0003584 -0.00150664 -0.00199815 -0.00011094 0.763155 -0.641237 -0.120362 0.004 300 0 
21 1 1 0.0222022 -0.0076189 0.00394193 0 0 0 0.00180334 -0.00101499 0.000696855 0.000180206 -0.00120726 -0.00116392 0.0226699 0.455314 -0.0311722 0.004 300 0 
17 1 1 0.0298221 -0.005229 0.00395265 0 0 0 0.000471112 -0.00161445 -0.000266087 0.00124423 -0.000615095 0.00103533 0.311411 -0.0305332 0.052921 0.004 300 0 
477 1 1 -0.0446346 -0.000732843 0.00396006 0 0 0 -0.000288222 -0.000881268 -0.00157252 -0.00123969 0.00141819 -0.00188016 0.184924 -0.225714 0.0813408 0.004 300 0 
140 1 1 -0.0352826 -0.00370548 0.0038483 0 0 0 0.00154218 -0.000676612 -3.30497e-05 0.000133399 0.00204994 -0.000731812 0.0102371 0.234218 0.61438 0.004 300 0 
119 1 1 -0.0274053 -0.00275613 0.00396618 0 0 0 -0.0008975 0.00443954 -0.000702605 -0.000617092 0.00325823 -0.00142055 1.12406 0.267949 0.822898 0.004 300 0 
207 1 1 -0.0195212 -0.00176111 0.00389263 0 0 0 -0.00233401 0.00318371 0.000350817 0.00170468 0.00499565 -0.00217264 -0.115723 -0.404492 -0.587518 0.004 300 0 
69 1 1 -0.011158 -0.00264367 0.00391552 0 0 0 -0.00399521 -0.000458718 -8.76772e-05 0.00378986 -0.000126258 0.00119987 0.0223733 -1.04084 0.952645 0.004 300 0 
221 1 1 0.00873779 -0.00441481 0.00393159 0 0 0 0.000943809 -0.00225782 -0.000788543 0.00196952 0.00471236 0.00178669 0.66797 0.128775 -0.356851 0.004 300 0 
457 1 1 0.0163661 -0.00202219 0.00395789 0 0 0 -0.00070634 -0.00508801 0.00215248 0.000671507 -0.0034487 -0.0017629 0.152151 -0.141761 0.456404 0.004 300 0 
155 1 1 0.037874 -0.00238032 0.00394121 0 0 0 0.000934697 0.00188521 -0.00119144 -0.00224389 0.000120221 0.00202405 -0.594715 0.228464 0.880021 0.004 300 0 
665 1 1 0.0459229 -0.00313417 0.00394015 0 0 0 -0.000823241 0.000823496 -0.000108676 -0.000205115 0.000430807 -0.000138788 0.0402323 -0.287849 0.17739 0.004 300 0 
120 1 1 0.0092018 -0.0371186 0.00876435 0 0 0 -0.000609235 0.000523061 0.0029867 -4.09009e-05 -0.00193649 -0.00522932 0.731611 0.785924 0.250618 0.004 300 0 
9 1 1 -0.0247079 -0.033377 0.00937154 0 0 0 0.000703763 -0.0019077 0.000730954 0.0038789 0.000308858 0.00157353 -0.448204 0.641642 -0.660465 0.004 300 0 
101 1 1 -0.0188819 -0.0277155 0.00957023 0 0 0 -0.00165745 -0.00526302 -0.000431905 0.0015417 -0.00143004 0.000603519 -0.611227 -1.46064 -0.271699 0.004 300 0 
48 1 1 0.0221844 -0.0292261 0.0092377 0 0 0 -0.000740853 -0.00259797 0.00160572 0.00130453 -0.000257493 -0.00209392 0.551381 -0.587768 -0.298765 0.004 300 0 
75 1 1 0.0293643 -0.0261777 0.00784139 0 0 0 -0.00130224 -0.00145012 0.00341729 0.00125024 0.00363424 0.000966771 0.813851 0.860239 0.0798625 0.004 300 0 
46 1 1 -0.0329508 -0.0205625 0.00944565 0 0 0 0.00158493 0.00116371 0.00317784 0.00220256 0.000904075 8.05843e-05 1.71726 0.0309324 -2.02037 0.004 300 0 
33 1 1 -0.0130772 -0.0221348 0.00958394 0 0 0 0.00158756 -0.000739074 0.000294174 -0.00222586 0.00654285 0.00346552 0.646233 0.267315 0.849242 0.004 300 0 
11 1 1 0.026907 -0.0187682 0.00927349 0 0 0 -0.00214834 -0.00219079 -0.000635067 -0.000976818 4.33583e-05 -0.00452433 -0.0465042 0.20921 1.12605 0.004 300 0 
71 1 1 -0.0373389 -0.00944956 0.00879726 0 0 0 0.0044506 0.00012012 -0.000911976 0.00537642 -0.00448113 0.00100835 0.30897 -0.305286 0.0212383 0.004 300 0 
62 1 1 -0.0227984 -0.00772529 0.00817358 0 0 0 -0.00473464 0.00342299 -0.00060051 0.00259751 0.00438512 -0.00515149 0.384871 1.39208 0.528576 0.004 300 0 
19 1 1 -0.00976152 -0.00901875 0.00849617 0 0 0 -0.00165918 0.00126203 0.000114682 0.0015158 -0.00069103 0.00433059 1.2623 -0.166228 -1.23725 0.004 300 0 
187 1 1 0.00801169 -0.00985171 0.009717 0 0 0 -0.00995466 0.0010148 -0.000356507 -0.00033812 0.00342817 -0.00319458 -1.35421 -2.80683 1.07491 0.004 300 0 
157 1 1 0.0394739 -0.00757004 0.00973931 0 0 0 0.000699225 0.00313349 -0.000941347 -0.000711792 -0.000792104 0.00289709 0.789715 -1.19299 0.306189 0.004 300 0 
18 1 1 0.00230575 -0.00410716 0.00858195 0 0 0 0.00213267 -0.000228254 0.000992479 -0.00217006 0.00442287 0.00234469 1.17526 0.0103888 -1.16804 0.004 300 0 
185 1 1 -0.0052955 -0.0457306 0.0104441 0 0 0 -0.000244028 -0.00103317 0.000499952 -0.000747525 -0.00228518 -0.00241006 -0.614995 1.02482 0.417271 0.004 300 0 
83 1 1 0.00258534 -0.0459552 0.0112403 0 0 0 -0.00026385 0.000290769 0.00314432 0.00137202 -0.000722651 -0.000903057 1.00501 -1.89197 0.112495 0.004 300 0 
58 1 1 -0.0218092 -0.0406046 0.011255 0 0 0 -0.000838018 0.000959566 0.00359216 0.00337795 -0.000756245 -0.00136069 0.670624 -1.27345 0.240963 0.004 300 0 
105 1 1 -0.0135983 -0.043961 0.010889 0 0 0 0.00331556 -0.00154214 -0.00176439 -0.00217788 -0.00121671 -0.00267662 0.0676245 0.607175 -0.61283 0.004 300 0 
223 1 1 0.0104121 -0.0448719 0.0106493 0 0 0 -0.000353699 0.00049363 0.00774532 0.000475065 -0.00122604 -0.000821743 1.40117 0.973869 -0.270917 0.004 300 0 
217 1 1 0.0179586 -0.0424318 0.0108035 0 0 0 -0.001522 9.91626e-05 0.00750475 0.000781133 0.00159306 -0.000607031 1.96103 0.527803 0.217814 0.004 300 0 
6 1 1 -0.0162364 -0.0350236 0.0113169 0 0 0 0.00151332 -0.00105997 0.00210393 0.00330766 -0.00126498 -0.00232862 0.441632 2.78555 -0.964122 0.004 300 0 
151 1 1 -0.00801756 -0.0382621 0.0108154 0 0 0 0.00132126 1.40206e-05 -0.000377927 -0.00382384 -0.00158134 -0.000371286 -0.835742 1.10373 -0.839981 0.004 300 0 
2 1 1 0.000482808 -0.0383131 0.0102942 0 0 0 -0.00221805 -0.00163214 0.0029657 0.00118547 -0.00364089 -0.00136652 0.0965735 -0.414045 0.175428 0.004 300 0 
117 1 1 0.0249254 -0.0387368 0.0109067 0 0 0 -0.00164213 0.000691941 0.00392535 0.00389719 0.00140947 0.000822637 -0.0386229 0.922193 0.0919401 0.004 300 0 
13 1 1 -0.0323256 -0.0327818 0.0115727 0 0 0 0.000627971 0.00107335 0.000673536 0.00345954 3.15762e-05 0.00123493 -0.493653 -1.08107 0.0911169 0.004 300 0 
193 1 1 -0.00980159 -0.0304842 0.0107926 0 0 0 -0.000370012 0.00203822 -0.00217588 -0.00415535 0.00123926 0.00424063 0.24335 -0.599396 1.7309 0.004 300 0 
47 1 1 -0.00138634 -0.0305683 0.0103672 0 0 0 -0.00115857 0.0017669 -0.000981227 0.000189138 -0.00258864 -0.000799069 -1.27661 0.354403 0.0805181 0.004 300 0 
153 1 1 0.00652431 -0.0300497 0.0113725 0 0 0 0.000243789 0.0043075 -0.00125146 0.00313204 -0.00379325 -0.00738921 0.416847 -0.615348 0.113797 0.004 300 0 
41 1 1 0.0147883 -0.0317498 0.0106454 0 0 0 0.000397804 -0.000415851 0.00142201 -0.00233191 -0.00299305 -0.00500399 -0.161031 0.705021 -0.201836 0.004 300 0 
163 1 1 0.0311401 -0.0339214 0.0111294 0 0 0 -0.000621272 0.00129236 0.000940587 0.000986258 0.000827574 0.00296084 -0.252623 0.38531 -0.242759 0.004 300 0 
214 1 1 -0.0375069 -0.0268729 0.0106901 0 0 0 -0.00112138 0.000250296 -0.00187759 0.00160476 0.000806969 0.00276129 0.132805 0.655274 0.499929 0.004 300 0 
210 1 1 0.0364634 -0.0281068 0.011115 0 0 0 -0.000411602 0.000141351 0.000920878 0.000682586 0.000623497 0.00413965 0.294965 -0.0910414 0.150743 0.004 300 0 
108 1 1 -0.0262018 -0.0245245 0.0107891 0 0 0 -0.00197466 -0.00424189 0.00261434 0.000301616 0.00139838 0.00477189 -0.105327 0.117135 0.540252 0.004 300 0 
40 1 1 -0.00548659 -0.0238404 0.0113569 0 0 0 3.77289e-06 0.00310536 0.000857589 0.000474434 -0.00374067 -0.00264065 1.45239 0.300532 -1.03927 0.004 300 0 
55 1 1 0.00238498 -0.0232647 0.0108342 0 0 0 0.000162711 0.00295559 0.000475923 0.00380195 -0.00315996 -0.00221414 -0.87534 -0.124434 0.44319 0.004 300 0 
91 1 1 0.012017 -0.0243672 0.0101717 0 0 0 0.00169044 0.000955066 -0.000796027 0.00281204 -0.00289072 -0.00600106 -0.413364 0.183479 -0.192619 0.004 300 0 
112 1 1 0.0192792 -0.0205572 0.0105267 0 0 0 -0.000721573 -0.00383342 0.0014008 5.49502e-05 -0.0006601 -0.00402508 -2.071 -0.03067 -0.388757 0.004 300 0 
178 1 1 0.0318553 -0.0225217 0.0144507 0 0 0 0.00237942 -0.00216576 0.00415624 -0.00235706 0.00423586 -0.000495816 -0.160066 0.519226 0.0942197 0.004 300 0 
131 1 1 0.0407778 -0.0214805 0.0110737 0 0 0 -0.000551209 7.53162e-05 -0.000159176 -0.00133188 -0.000538436 0.00439219 -0.396278 -0.484954 -0.205362 0.004 300 0 
160 1 1 -0.0414673 -0.0199741 0.0108216 0 0 0 -0.000684248 -0.00177859 -0.00113196 -0.00133864 -0.00146814 -0.00275221 -0.327775 0.0925781 -0.401493 0.004 300 0 
4 1 1 -0.0271359 -0.0152052 0.0101029 0 0 0 -0.000933472 0.00555259 -0.0033321 0.0069528 0.00187954 0.00377724 1.56011 2.37292 3.31837 0.004 300 0 
104 1 1 -0.0203334 -0.0192366 0.0111376 0 0 0 -0.00291658 -0.00124216 -0.00285063 0.00168799 0.00133718 0.00668808 -3.0652 -0.0968433 0.157113 0.004 300 0 
20 1 1 -0.00781077 -0.0162934 0.0109963 0 0 0 -0.000860996 0.00291297 0.000527919 0.00438029 -0.00312194 0.00208043 -1.54523 -0.0429424 1.49488 0.004 300 0 
45 1 1 0.000808051 -0.0164256 0.0146269 0 0 0 0.00344499 0.00797067 -0.0100018 -0.000320136 0.000167696 -0.000583038 0.891962 -2.64686 -1.51761 0.004 300 0 
159 1 1 0.00793813 -0.0176553 0.0113722 0 0 0 0.00263565 0.00300255 -0.000184425 0.00338746 0.000852509 -0.00344999 0.287175 0.053919 -0.651898 0.004 300 0 
136 1 1 0.0348382 -0.0163149 0.010496 0 0 0 -0.000699025 -0.00123835 -0.000326969 -0.00277756 -0.00151353 0.00127404 0.784766 0.547875 0.605383 0.004 300 0 
177 1 1 -0.0443279 -0.0125573 0.0108272 0 0 0 0.00288137 -0.00105138 -0.00501663 0.000602468 0.00142697 -0.000692831 -0.876543 0.982568 -0.531147 0.004 300 0 
43 1 1 -0.0361628 -0.0150763 0.0142009 0 0 0 -0.00148587 -4.13448e-05 0.00067575 0.00161383 -0.00441402 -0.00731039 -0.335076 -3.48429 1.33424 0.004 300 0 
139 1 1 -0.0168537 -0.0121364 0.0110689 0 0 0 -0.00553202 0.000594815 -0.00773729 -0.00039958 0.00318633 -0.000934597 2.33726 -0.882189 -0.824067 0.004 300 0 
211 1 1 -0.00216958 -0.0104399 0.0103362 0 0 0 -7.56669e-06 0.00577455 -0.0052917 -0.00205122 0.00613115 0.00443538 -1.20455 0.970774 1.41129 0.004 300 0 
54 1 1 0.0149257 -0.0139076 0.0108267 0 0 0 0.00179266 -0.00154164 -0.000736826 0.00293082 -0.000983832 -0.001069 1.15368 0.21343 -0.156393 0.004 300 0 
84 1 1 0.0233038 -0.0118277 0.0106452 0 0 0 -0.00353106 -0.00273458 0.00424294 0.00110607 -0.000565796 -0.00471375 0.49774 0.889816 -0.510673 0.004 300 0 
180 1 1 0.0438095 -0.0141214 0.0110683 0 0 0 0.000671906 0.00174021 -0.00165692 -0.00130637 -0.00435409 -0.00204974 -0.0400424 -0.377906 -0.106311 0.004 300 0 
103 1 1 0.0174876 -0.00639563 0.0105176 0 0 0 -0.0009934 -0.0018889 0.00581463 -0.00180818 -3.75139e-05 -0.00247326 -0.21821 -0.594596 0.152199 0.004 300 0 
156 1 1 0.0309096 -0.00946998 0.0106259 0 0 0 -0.00302764 -0.00272569 0.00226918 -0.00182019 -0.000980252 -0.00279085 -0.0823799 -0.0665086 0.110726 0.004 300 0 
197 1 1 -0.0457899 -0.00474176 0.0107593 0 0 0 0.00129638 0.000305301 -0.00245954 0.00629367 0.00023584 0.00123505 -0.298827 0.366414 0.356728 0.004 300 0 
87 1 1 -0.0386435 -0.00371769 0.0141534 0 0 0 -0.000387775 0.0025714 -0.00349302 -0.000943172 -0.000259139 0.00260631 0.170752 -0.991957 0.462611 0.004 300 0 
130 1 1 -0.0314252 -0.00390448 0.0107574 0 0 0 0.0040726 0.00035259 0.00132637 -0.00326699 -0.0023369 -0.00949351 -0.829615 0.152586 -0.484628 0.004 300 0 
604 1 1 -0.022542 -0.000312002 0.0110519 0 0 0 -0.00422868 0.00200655 0.001029 -0.000614412 0.00202393 -0.000729687 0.321867 -0.00830031 0.33795 0.004 300 0 
146 1 1 -0.0154797 -0.00383472 0.0104134 0 0 0 -0.006016 -0.00307473 -0.00119179 0.00104413 0.0054085 -0.000211291 1.31866 0.451997 -1.81863 0.004 300 0 
57 1 1 -0.00523561 -0.00305931 0.0111447 0 0 0 0.00211475 -0.00323558 0.00833627 -0.00482542 -0.00144035 0.00934698 0.816847 0.447893 0.574125 0.004 300 0 
493 1 1 0.0117691 -0.000896412 0.0103778 0 0 0 -0.00291382 -0.0037929 0.00188343 -0.00152274 0.0035686 -0.000407163 0.0571689 -0.679372 0.801552 0.004 300 0 
31 1 1 0.0250771 -0.00407913 0.0104253 0 0 0 -0.002178 -0.00220273 0.00242906 -0.00186731 0.000767394 -0.00184527 -0.275902 1.24831 -0.00492232 0.004 300 0 
588 1 1 0.0326062 -0.00176029 0.0105422 0 0 0 -0.00131641 -0.00239294 -7.00057e-05 -0.000741663 0.000600904 0.00450311 -0.0133278 -0.456526 -0.13683 0.004 300 0 
63 1 1 0.0459101 -0.00341173 0.01192 0 0 0 -0.000441383 0.00373473 0.00143323 0.00158196 -0.00126442 0.000691213 -0.846047 0.363891 0.239565 0.004 300 0 
107 1 1 -0.0083743 -0.0452956 0.0177258 0 0 0 0.00285382 -0.00049765 0.0027251 0.000878174 -0.00296339 -0.000219054 0.620094 -1.38852 -0.834806 0.004 300 0 
222 1 1 -0.00129048 -0.0418292 0.0171753 0 0 0 0.00044817 -0.00076464 0.00449205 0.00108495 -0.00166881 -0.00306206 -0.904287 0.528551 0.944141 0.004 300 0 
142 1 1 0.00623583 -0.040157 0.0154318 0 0 0 -0.00120134 0.000740205 0.00601394 0.000937714 -0.000309189 -0.00119105 -1.61568 -1.38958 0.342528 0.004 300 0 
172 1 1 0.0117179 -0.0446018 0.019028 0 0 0 -0.00153828 -0.000950452 0.00711319 0.00090992 0.000934313 -0.00340791 2.18839 0.210538 0.470072 0.004 300 0 
109 1 1 0.0204381 -0.0412809 0.0182942 0 0 0 -0.00138487 0.0013226 0.00954393 -0.00103052 0.000410539 -8.56754e-05 1.6319 1.13566 0.182213 0.004 300 0 
150 1 1 -0.0272719 -0.0371213 0.0158727 0 0 0 -0.000108008 -0.000436529 0.0024912 0.00168366 -0.00099562 0.00115028 0.738612 0.221369 -0.511735 0.004 300 0 
38 1 1 -0.0197145 -0.0374367 0.0182704 0 0 0 0.000422944 0.000827665 0.0065015 0.00345027 -0.00345951 -0.00247833 -1.01629 -0.34755 0.459757 0.004 300 0 
199 1 1 -0.0117864 -0.0370021 0.0176943 0 0 0 0.00186794 -0.00377429 0.00326311 -0.00159442 -0.00200367 -0.0053011 2.25834 -0.952047 0.707035 0.004 300 0 
93 1 1 0.0138045 -0.0377607 0.0156503 0 0 0 -0.000879401 0.00220405 0.00942699 -0.00123262 -0.000983835 -0.00328875 -1.83395 -0.396194 -0.582868 0.004 300 0 
64 1 1 0.027952 -0.0365357 0.017949 0 0 0 -0.00164637 -7.70129e-06 0.0024513 0.00258386 0.0027811 0.00563261 0.577003 -0.960626 0.264269 0.004 300 0 
22 1 1 -0.0326516 -0.0324985 0.0195211 0 0 0 -0.0050595 -0.0016652 0.00189405 -0.00237905 -0.00216824 -0.00406586 -0.193371 -0.761324 1.0267 0.004 300 0 
174 1 1 -0.0224126 -0.0302825 0.0162689 0 0 0 -0.00102319 -0.00162862 0.00215965 0.00603594 -0.000638459 -5.776e-05 0.447861 -1.55114 0.510419 0.004 300 0 
32 1 1 -0.00423804 -0.0344547 0.0166774 0 0 0 -0.000393762 -0.000628905 -0.00416621 -0.00477398 0.000662912 0.0016748 1.1733 -1.47082 1.73877 0.004 300 0 
128 1 1 0.00350886 -0.033192 0.0180263 0 0 0 -0.00260733 0.00281294 -0.00609074 4.02599e-05 0.00554409 0.00268764 -0.0629702 -0.0200666 -0.200457 0.004 300 0 
88 1 1 0.0113549 -0.0304916 0.017705 0 0 0 -0.00078227 0.00466141 9.87249e-05 -0.00304289 -0.000281333 0.000643432 -0.142159 -0.65696 0.516841 0.004 300 0 
137 1 1 0.0207428 -0.033851 0.0155441 0 0 0 -0.000701427 -7.92427e-05 0.00366519 0.000874073 -0.00128408 -0.00394981 -0.442973 1.01373 -0.0759828 0.004 300 0 
154 1 1 0.0339815 -0.0311628 0.0180348 0 0 0 0.00313512 0.00143509 0.00164135 -0.000882124 0.00561337 0.00110966 0.930494 0.0125171 -0.917951 0.004 300 0 
52 1 1 -0.0319886 -0.0253742 0.0160927 0 0 0 -0.0044192 -0.00466673 0.00180112 0.00649749 0.0115219 0.00687398 1.01 -1.47793 -0.947695 0.004 300 0 
80 1 1 -0.00959044 -0.026474 0.0175944 0 0 0 -0.00423826 -0.000239952 0.00154445 -0.00506 -0.00259777 0.000616342 0.528706 -0.0565103 -0.586954 0.004 300 0 
125 1 1 -0.00118229 -0.026818 0.0173864 0 0 0 -0.000119368 0.00519851 -0.0010501 0.00289601 -0.00177225 -0.00396979 -0.230978 -0.970006 -0.199033 0.004 300 0 
72 1 1 0.0179348 -0.0264429 0.0156813 0 0 0 -0.000917049 -0.000971133 0.00479848 0.000870818 -0.00385347 -0.00275341 0.846074 -0.686262 0.442061 0.004 300 0 
34 1 1 0.0269584 -0.0287189 0.0154663 0 0 0 0.000612302 0.0014484 0.00248842 -0.00287563 0.000677147 -0.00248613 -1.81038 0.80091 0.641899 0.004 300 0 
218 1 1 -0.0395627 -0.0235007 0.017708 0 0 0 -0.00127093 0.000207123 0.00387957 -0.0101817 0.00281633 0.00265704 -0.00886427 0.392466 0.0293383 0.004 300 0 
70 1 1 -0.0247323 -0.0230696 0.0184231 0 0 0 -0.0052876 0.00147412 -0.00144211 0.00792414 0.0065996 0.0125107 -1.19068 -0.840922 -0.375903 0.004 300 0 
132 1 1 -0.017105 -0.0241624 0.0164645 0 0 0 -0.00651938 -0.00631347 0.000798441 0.000204278 -0.00735036 0.00163873 -0.436404 0.318122 0.288971 0.004 300 0 
86 1 1 -0.00508543 -0.0200112 0.0185538 0 0 0 -0.0104573 0.00394693 -0.0318538 -0.0063844 -0.0120997 -0.00063918 1.39671 -1.10414 -0.421473 0.004 300 0 
196 1 1 0.0070439 -0.0238485 0.0171888 0 0 0 -0.000216699 0.00377488 0.000270071 0.00226254 -0.00355954 -0.00291464 0.570907 0.351012 -0.77195 0.004 300 0 
362 1 1 0.0243834 -0.0214003 0.0170637 0 0 0 -0.00137452 -0.000988331 0.00543229 -0.000854345 -0.00080636 -0.00409049 1.95529 0.34885 0.440517 0.004 300 0 
49 1 1 0.0387603 -0.0248211 0.0179852 0 0 0 0.000990482 -0.00160294 0.0037085 0.00212808 0.00128662 0.000891286 0.354911 1.30184 0.90458 0.004 300 0 
173 1 1 -0.0431193 -0.0163408 0.0177187 0 0 0 -0.00106955 0.00127552 -0.00581761 -0.00594002 -0.00122879 0.00337305 -1.67052 1.8152 -0.0929515 0.004 300 0 
50 1 1 -0.029596 -0.0168777 0.01819 0 0 0 -0.00220645 0.00320692 0.00386401 0.00765905 0.0103697 0.00360625 2.19688 1.63369 -0.420032 0.004 300 0 
202 1 1 -0.0135666 -0.0170446 0.0163683 0 0 0 -0.0130169 -0.00221393 -0.0102801 0.00978424 -0.00419199 0.00663552 -1.80951 0.746169 1.71273 0.004 300 0 
129 1 1 0.0137668 -0.0197116 0.0163408 0 0 0 0.00273223 0.00111638 -0.00270789 0.00680361 -0.00190998 -0.00784301 0.37809 0.412166 0.327094 0.004 300 0 
82 1 1 0.0291574 -0.0151216 0.0159495 0 0 0 0.00380652 -0.00709257 -0.000993202 -0.00127931 -0.00339694 -0.00364003 1.14528 0.589104 0.0012584 0.004 300 0 
1 1 1 0.0424589 -0.0178108 0.0179281 0 0 0 -0.000197912 0.00197102 -0.00203265 -0.00225352 0.00220725 -0.00311694 -0.892985 0.309216 -0.102456 0.004 300 0 
168 1 1 -0.0225578 -0.013731 0.0164044 0 0 0 0.000428374 0.00193519 -0.00147011 0.00916255 0.00235218 0.00762585 1.65267 0.380668 -0.318405 0.004 300 0 
121 1 1 -0.00543658 -0.0121976 0.0173804 0 0 0 -0.000544092 0.00909793 -0.0054774 0.00553856 -0.00671847 0.000429461 2.62897 1.2771 0.602957 0.004 300 0 
28 1 1 0.00792771 -0.0137219 0.0182373 0 0 0 0.00440977 0.00403809 0.00258644 0.00436032 0.00687289 -0.00818708 0.397224 0.1778 -0.356068 0.004 300 0 
42 1 1 0.0199428 -0.0148336 0.0172066 0 0 0 0.00266869 -0.000732377 0.0080498 0.00305651 0.000741473 -0.00394415 0.464 -2.78485 -1.24025 0.004 300 0 
60 1 1 0.0375761 -0.0116654 0.0163022 0 0 0 -0.00261531 0.00279015 -0.000249281 -0.00332299 0.000679838 -0.00100004 -1.52904 -0.314521 0.587548 0.004 300 0 
135 1 1 -0.0452193 -0.00868816 0.0176972 0 0 0 0.00987616 0.000478116 -0.00594614 0.00322123 0.010262 0.00370736 0.648948 -0.25837 -0.468383 0.004 300 0 
81 1 1 -0.0376038 -0.0095876 0.0198423 0 0 0 0.00904902 -0.0151354 0.0289648 0.000506677 -0.00521634 0.00256353 2.44305 -3.42432 -0.875605 0.004 300 0 
190 1 1 -0.0303394 -0.00915899 0.0166064 0 0 0 -0.000326466 0.00585698 0.0114692 0.00431581 0.00237455 -0.00918196 -0.3885 -1.38197 0.357677 0.004 300 0 
7 1 1 -0.0204994 -0.00610028 0.0160978 0 0 0 -0.00427643 0.00598574 0.0023608 0.00794299 -0.00273933 -0.00113273 -0.321752 -0.998584 2.2258 0.004 300 0 
145 1 1 -0.0120997 -0.00825045 0.0160511 0 0 0 -0.00572243 -0.00116753 -0.0012763 0.00408611 0.000717572 -0.00184448 -1.31704 -0.656949 2.14759 0.004 300 0 
186 1 1 0.00172805 -0.00887417 0.0171174 0 0 0 0.00312309 -0.00222145 0.00228203 0.00547598 0.00441822 -0.000412666 1.76189 -1.73646 -3.94715 0.004 300 0 
56 1 1 0.0143655 -0.00914703 0.0173125 0 0 0 0.0082196 0.00254487 0.0133438 0.00303151 -0.00248755 -0.0016102 2.62391 -0.931066 -0.884432 0.004 300 0 
191 1 1 0.0220749 -0.00721349 0.0170134 0 0 0 0.00806169 -0.00145775 0.00757391 0.000981802 -0.00141358 -0.00403598 -0.33085 1.63852 0.0737404 0.004 300 0 
208 1 1 0.0314556 -0.0059318 0.0177369 0 0 0 -0.00801194 -0.0112967 0.00778574 -0.00730979 0.00380171 -0.0079076 1.09556 0.984552 0.921187 0.004 300 0 
92 1 1 0.0450953 -0.00929217 0.0172641 0 0 0 -0.00186452 0.00230921 0.00180859 -0.00141266 -0.00473223 -0.00239166 0.921648 -0.928431 -0.36566 0.004 300 0 
192 1 1 -0.0460655 -0.000806437 0.017619 0 0 0 -0.00019037 0.000447901 0.000484624 0.00959811 0.00807049 0.00768531 0.334135 -1.01963 0.237037 0.004 300 0 
462 1 1 -0.0273063 -0.00184674 0.0172306 0 0 0 -0.00535725 0.00505143 0.00249789 -0.00959856 0.00395135 -0.00519285 -1.91854 -0.26536 -0.099825 0.004 300 0 
450 1 1 -0.0127525 -0.000741487 0.0183193 0 0 0 -0.00699991 -0.00123215 -0.00417671 0.0118443 -0.000827679 -0.00133604 0.544765 -0.970406 -1.54575 0.004 300 0 
111 1 1 -0.00563944 -0.00430241 0.0189781 0 0 0 -0.00608851 -0.00488237 0.0123762 0.00358167 0.00694098 0.000690555 -1.30799 -2.35143 1.57911 0.004 300 0 
622 1 1 0.000902712 -0.00106737 0.0157529 0 0 0 0.00294551 -0.00401684 0.00457396 -0.000665863 2.85826e-06 0.00134412 -0.153617 0.0931657 -0.558361 0.004 300 0 
106 1 1 0.00813597 -0.00426469 0.0165452 0 0 0 0.00570813 -0.0047606 0.00819198 0.0031054 0.00514836 -0.00246321 -2.94624 -0.64415 3.1391 0.004 300 0 
651 1 1 0.0258889 -0.000255384 0.0173564 0 0 0 0.00440906 0.00186893 -0.000916929 -0.00600422 -0.00283054 -0.00613116 -1.0741 1.29609 1.04461 0.004 300 0 
133 1 1 0.039003 -0.00367633 0.0166698 0 0 0 -0.00896198 0.000692766 0.000864702 -0.00743649 -0.00320682 0.00183534 0.502793 -0.858821 0.753784 0.004 300 0 
164 1 1 0.0460325 -0.00185017 0.0198865 0 0 0 -0.00455565 0.0011855 0.0040219 0.000145139 -0.00354529 -0.00214747 0.429169 0.503032 -0.296271 0.004 300 0 
127 1 1 -0.00214051 -0.0460616 0.0238222 0 0 0 -0.000349211 -0.00122663 0.0029083 0.00212942 0.000615659 -0.0086821 1.29458 -0.735005 -0.183773 0.004 300 0 
126 1 1 -0.0153436 -0.0434486 0.0209276 0 0 0 0.00191052 0.00210818 0.0022577 -0.000816868 -0.00126437 -0.00102568 1.5833 1.18847 0.0278131 0.004 300 0 
143 1 1 0.00421944 -0.0414227 0.0229754 0 0 0 -0.00392854 0.000692897 0.00841132 0.0038011 -0.00293162 -0.0045336 1.44412 0.984606 -0.0171019 0.004 300 0 
110 1 1 -0.0272896 -0.0370894 0.0237977 0 0 0 0.0022811 -6.83461e-05 0.000724936 -0.0024704 -0.00127924 0.00195685 -1.36098 0.94019 0.784295 0.004 300 0 
371 1 1 -0.00698448 -0.0398489 0.0233699 0 0 0 -0.000101486 -0.00168841 0.00518137 -0.00370043 0.00389656 -0.00164325 -1.33107 1.02672 0.307009 0.004 300 0 