ITEM: TIMESTEP
27200
ITEM: NUMBER OF ATOMS
890
ITEM: BOX BOUNDS mm mm mm
-0.05 0.05
-0.05 0.05
0 0.15
ITEM: ATOMS id type type x y z ix iy iz vx vy vz fx fy fz omegax omegay omegaz radius f_Temp[0] f_heatFlux[0] 
59 1 1 -0.00071555 -0.0460982 0.003956 0 0 0 -7.90507e-07 -4.00992e-07 -2.10327e-06 -2.35241e-07 -3.00577e-06 -2.65594e-06 -0.000310041 -0.000319447 0.000641608 0.004 525.072 3.096 
170 1 1 -0.0173498 -0.0426414 0.00397303 0 0 0 -1.86149e-06 -1.57834e-06 -2.64346e-06 2.85e-07 -1.70608e-06 -2.22827e-06 -0.000175679 -0.000174387 6.68961e-05 0.004 348.475 6.94878 
15 1 1 -0.00975016 -0.0449637 0.00393399 0 0 0 -9.06904e-07 -3.53549e-06 -3.65664e-06 4.46465e-08 -3.38054e-06 -2.78545e-06 0.000826255 0.000242652 -0.000445308 0.004 387.113 7.67575 
116 1 1 0.0064876 -0.0428197 0.00395872 0 0 0 -1.33422e-06 2.26589e-06 -2.38088e-06 8.34907e-07 -7.32652e-06 -2.03904e-06 -0.00121337 -0.00028798 -0.000283868 0.004 642.061 -3.99993 
158 1 1 0.0143627 -0.0437625 0.00389983 0 0 0 4.62541e-08 9.52666e-08 -1.09088e-06 8.76832e-08 -3.80478e-06 -2.42704e-06 0.000282984 4.8149e-05 0.000245187 0.004 714.653 -7.50183 
98 1 1 0.0216779 -0.0406527 0.00394263 0 0 0 -9.91653e-07 9.12101e-07 5.7345e-07 -1.06379e-06 -1.69108e-06 -2.15704e-06 0.000224618 -0.000112467 5.78661e-05 0.004 759.622 -6.4679 
169 1 1 -0.0244315 -0.0390659 0.0039143 0 0 0 -3.49657e-06 -3.14022e-06 -6.08577e-06 -4.74365e-07 -2.28982e-06 -3.69593e-06 -0.000288415 -0.000314506 0.0003064 0.004 320.116 4.38865 
89 1 1 -0.011812 -0.0369235 0.00395466 0 0 0 -3.12751e-06 -2.14447e-06 -5.78545e-06 1.07735e-06 -2.51709e-06 -5.2191e-06 0.000789645 0.00055394 5.19954e-05 0.004 386.448 6.51664 
152 1 1 -0.00418342 -0.0390222 0.0039053 0 0 0 -2.11928e-06 -2.0102e-06 -8.19599e-06 2.05731e-06 -4.59592e-06 -7.88605e-06 -0.000155682 -0.000510234 2.82796e-05 0.004 474.906 4.40311 
23 1 1 0.0153483 -0.035882 0.00391134 0 0 0 -1.94215e-06 2.79244e-06 1.02607e-06 -1.03162e-06 -5.57444e-06 -6.34268e-06 -0.000241378 -0.00038938 2.63296e-05 0.004 728.657 -7.75752 
118 1 1 -0.0307532 -0.0342397 0.00392727 0 0 0 -2.63785e-06 -2.74114e-06 -5.16248e-06 1.98089e-07 -2.02667e-06 -2.72263e-06 0.000380491 -0.000520725 -0.000125648 0.004 305.963 1.98215 
30 1 1 -0.0188787 -0.0333717 0.0039528 0 0 0 -6.76686e-06 -2.69958e-06 -8.32876e-06 -1.39483e-06 -3.83789e-06 -7.25328e-06 -0.000370578 -0.00155081 0.000312084 0.004 333.309 5.11376 
215 1 1 -0.00603632 -0.0313237 0.00390669 0 0 0 -6.89591e-07 -4.87344e-06 -6.36511e-06 4.68453e-06 -8.47477e-06 -9.22419e-06 0.00137184 -9.37278e-05 0.000339246 0.004 441.399 6.03852 
74 1 1 0.00184139 -0.0338192 0.00390687 0 0 0 -1.75916e-06 3.17105e-07 -4.76837e-06 3.48626e-06 -7.29519e-06 -9.27078e-06 0.000197731 -0.000658264 1.7318e-05 0.004 559.943 -0.43004 
24 1 1 0.00917857 -0.0308341 0.00392041 0 0 0 -3.09426e-06 3.12642e-06 -5.69978e-07 -7.78203e-07 -7.30285e-06 -8.54344e-06 -0.000282543 -0.000542172 0.000196981 0.004 675.516 -6.4746 
198 1 1 0.0259423 -0.0339524 0.00395554 0 0 0 -3.51892e-06 3.42727e-06 1.84397e-06 -5.82446e-08 -2.13401e-06 -5.45665e-06 -0.000581974 -0.000612276 0.000555058 0.004 783.098 -4.101 
161 1 1 0.0335301 -0.0316074 0.0039136 0 0 0 -2.12956e-06 3.16661e-06 1.79073e-06 8.80783e-08 -3.26448e-06 -3.21042e-06 -0.000137028 -6.55562e-05 -0.000231802 0.004 793.636 -2.09756 
8 1 1 -0.0322699 -0.0264156 0.00398408 0 0 0 -3.81781e-06 -1.77765e-06 -5.4761e-06 2.23102e-07 -6.29357e-07 -3.47951e-06 -0.000179304 0.00124555 0.000639914 0.004 304.476 1.54382 
12 1 1 -0.0244143 -0.0276959 0.00386446 0 0 0 -6.41445e-06 -2.47409e-06 -1.28949e-05 -4.99307e-07 -2.5849e-06 -9.66246e-06 0.000754024 -0.000798569 -0.000591676 0.004 315.091 3.5584 
188 1 1 -0.0131742 -0.0277762 0.00396594 0 0 0 -6.21017e-06 -3.08275e-06 -5.06203e-06 1.3323e-06 -6.58715e-06 -8.5986e-06 0.000334332 -0.00156291 -4.85423e-05 0.004 349.711 6.3446 
77 1 1 -0.000100208 -0.0260808 0.00389425 0 0 0 -4.20779e-06 2.07761e-07 -8.90921e-07 -6.86469e-07 -6.10416e-06 -1.07288e-05 0.000299277 -0.000813382 0.00114558 0.004 536.322 0.967477 
113 1 1 0.0165643 -0.0280203 0.00388664 0 0 0 -4.73583e-06 3.91238e-06 2.87875e-06 -7.27058e-07 -5.23237e-06 -6.12353e-06 -0.000128485 -0.000765829 0.00040822 0.004 742.262 -6.76753 
183 1 1 0.0384541 -0.0253742 0.00393849 0 0 0 -2.02466e-06 2.57721e-06 3.25794e-06 4.80547e-07 -1.8358e-06 -2.8925e-06 0.000296943 0.000463444 -0.000204578 0.004 797.762 -0.939844 
162 1 1 -0.0396311 -0.023418 0.00390785 0 0 0 -5.181e-06 -1.20283e-06 -3.79981e-06 -2.0838e-06 2.04357e-07 -3.01981e-06 0.00040613 -0.00108583 -0.000886886 0.004 301.333 0.605838 
53 1 1 -0.027206 -0.0202486 0.00395174 0 0 0 -8.24491e-06 1.85592e-06 -8.01635e-06 -2.12351e-06 1.5473e-06 -8.74325e-06 -0.000402943 -0.00239756 0.000549981 0.004 308.099 2.35066 
148 1 1 -0.0187584 -0.0220642 0.00393826 0 0 0 -7.55064e-06 -1.35104e-06 -1.07548e-05 1.55491e-06 -4.73013e-06 -1.21004e-05 -6.47146e-05 -0.0015309 0.000189706 0.004 327.391 5.36634 
195 1 1 -0.00727817 -0.02155 0.00394576 0 0 0 -5.8502e-06 2.32892e-06 -3.11924e-06 6.89868e-06 -2.61754e-07 -1.41414e-05 0.000193976 -0.00103931 0.000813704 0.004 410.056 8.39509 
179 1 1 0.00736631 -0.0231031 0.00394282 0 0 0 -6.90837e-06 2.41662e-06 2.14913e-06 -1.31337e-06 -5.37291e-06 -8.74609e-06 0.000179665 -0.00166427 0.000986243 0.004 677.891 -7.39352 
95 1 1 0.0148506 -0.02031 0.00393219 0 0 0 -7.3423e-06 3.5021e-06 7.70274e-06 -7.50524e-07 -3.69325e-06 -1.07058e-05 -0.000290921 -0.000816513 5.39793e-05 0.004 738.281 -6.88892 
76 1 1 0.0230028 -0.0233057 0.00397478 0 0 0 -6.66929e-06 5.72083e-06 7.12999e-06 -7.41918e-07 -4.61575e-06 -6.69484e-06 -0.000404483 -0.00168501 0.000413705 0.004 784.668 -3.59342 
100 1 1 0.0325586 -0.0200895 0.003886 0 0 0 -7.35319e-06 6.15748e-06 9.88119e-06 3.32186e-07 -5.12659e-06 -8.02781e-06 -0.000407927 -0.000815952 0.000493616 0.004 795.652 -1.50205 
65 1 1 -0.0430742 -0.0162802 0.00393148 0 0 0 -3.42599e-06 4.77093e-07 -3.66257e-06 -1.82049e-06 1.53945e-06 -3.08166e-06 -4.07609e-05 0.000215439 0.0003124 0.004 300.603 0.314057 
102 1 1 -0.0351582 -0.0155178 0.00394455 0 0 0 -9.23141e-06 4.54111e-06 -7.13769e-06 -3.65028e-06 5.06907e-06 -7.01054e-06 -0.00137129 -0.00134503 0.00097193 0.004 302.14 0.864601 
213 1 1 -0.0132588 -0.0162738 0.00397371 0 0 0 -8.29247e-06 -2.22114e-07 -1.8774e-06 -3.05426e-06 -7.03965e-07 -7.57793e-06 0.00134431 -0.00134203 -0.000250881 0.004 347.595 7.28372 
10 1 1 0.00114849 -0.0182524 0.00475014 0 0 0 -8.44455e-06 1.04594e-06 4.14437e-06 -1.69153e-06 -1.93716e-06 -1.35454e-05 0.000683942 0.00101627 -0.000557545 0.004 577.291 -2.04017 
5 1 1 0.00879792 -0.0152553 0.00390324 0 0 0 -7.33863e-06 2.77649e-06 8.61552e-06 -4.55579e-07 -3.34685e-06 -1.16891e-05 -0.000223591 -0.000713827 -0.000488797 0.004 687.274 -6.4929 
96 1 1 0.0211693 -0.0155242 0.00395659 0 0 0 -8.80201e-06 3.45456e-06 1.16947e-05 -1.43758e-06 -1.98372e-06 -9.33378e-06 0.000551518 -0.00159171 0.000572035 0.004 779.346 -4.10998 
167 1 1 0.0421923 -0.0183683 0.00392113 0 0 0 -2.74886e-06 1.67155e-06 2.26445e-06 8.20996e-07 -1.72451e-06 -2.65768e-06 -0.000380861 -0.000625922 -1.57683e-05 0.004 799.428 -0.305908 
124 1 1 -0.0290109 -0.0104716 0.00394796 0 0 0 -1.30876e-05 5.68146e-06 -1.8355e-06 -8.08106e-06 5.89689e-06 -6.85303e-06 -0.000201497 -0.00308034 -0.000922048 0.004 307.126 2.13113 
220 1 1 -0.0217759 -0.0144544 0.00398049 0 0 0 -9.2036e-06 5.12946e-06 -7.16876e-07 -6.54254e-06 6.82769e-06 -6.32425e-06 -0.0013784 -0.00203628 9.69489e-05 0.004 320.24 3.9389 
144 1 1 -0.00535514 -0.0138038 0.00388196 0 0 0 -5.38781e-06 3.16104e-06 5.744e-06 -6.39365e-07 1.50393e-06 -1.99341e-05 0.000183521 -0.00107789 -0.000311806 0.004 479.073 4.05667 
26 1 1 0.00255575 -0.0104629 0.0039058 0 0 0 -6.94057e-06 2.4503e-06 9.68531e-06 -9.88469e-07 7.0295e-07 -1.4509e-05 0.000731737 -7.7236e-05 0.000290772 0.004 584.253 -1.89122 
194 1 1 0.0287352 -0.013103 0.00393087 0 0 0 -8.27885e-06 4.83665e-06 1.38254e-05 -1.97411e-07 -5.30185e-06 -9.10608e-06 -0.000172645 -0.000885202 -0.000319099 0.004 793.575 -1.95454 
37 1 1 0.0366701 -0.0122308 0.00393309 0 0 0 -8.46056e-06 3.48272e-06 1.2246e-05 -2.7988e-06 -4.6426e-07 -5.84159e-06 -0.001222 -0.00157491 -0.000569367 0.004 798.726 -0.564212 
219 1 1 0.0447285 -0.0108715 0.00390889 0 0 0 -2.26543e-06 1.21773e-06 1.59028e-06 3.77102e-08 -2.00813e-06 -2.5587e-06 -0.00068995 -0.000458001 -0.000289157 0.004 799.82 -0.117559 
636 1 1 -0.0451997 -0.00864275 0.00391772 0 0 0 -2.69107e-06 6.07303e-07 -1.0255e-06 -3.81164e-06 1.59672e-06 -1.71661e-06 0.000187389 -0.00052295 -0.000367189 0.004 300.206 0.128127 
39 1 1 -0.0161466 -0.00885111 0.00389002 0 0 0 -6.0944e-06 4.0915e-06 1.05612e-06 -5.43865e-06 6.2041e-06 -1.4509e-05 -0.000379319 -0.00118502 -0.000529364 0.004 355.434 5.88439 
171 1 1 -0.00395981 -0.00597828 0.00392061 0 0 0 -5.54088e-06 2.81315e-06 1.0995e-05 -2.45917e-06 1.98955e-06 -1.70883e-05 1.91193e-05 -0.000545491 4.63752e-06 0.004 488.608 3.61813 
200 1 1 0.0146298 -0.0098652 0.00396386 0 0 0 -1.03215e-05 1.53833e-06 1.34899e-05 -7.4225e-07 -7.16576e-07 -8.75967e-06 -9.80254e-05 -0.00159361 0.000880439 0.004 746.178 -6.55469 
21 1 1 0.022252 -0.00762162 0.00394345 0 0 0 -1.05257e-05 2.43717e-06 1.68623e-05 3.86188e-08 -1.82758e-06 -8.57508e-06 -0.000346557 -0.00192163 -0.000423442 0.004 782.033 -3.8834 
17 1 1 0.0298456 -0.00520716 0.00394882 0 0 0 -9.68221e-06 3.22475e-06 1.71906e-05 2.28394e-06 -5.24534e-06 -6.67784e-06 -0.000199743 -0.00177522 0.00071536 0.004 794.22 -1.90601 
477 1 1 -0.0445832 -0.000710819 0.00396288 0 0 0 -6.94047e-07 4.38978e-07 1.40298e-06 -3.44302e-06 2.19541e-06 -7.83454e-07 5.08181e-05 -0.000247131 -4.75316e-05 0.004 300.251 0.138122 
140 1 1 -0.0352672 -0.0037183 0.00387254 0 0 0 -1.81803e-06 4.2853e-06 1.71477e-06 -3.7815e-06 6.7603e-06 -3.75759e-06 -0.000704259 -0.000336695 0.000621775 0.004 303.295 1.10909 
119 1 1 -0.0273891 -0.00269837 0.00396398 0 0 0 -4.31023e-06 6.16264e-06 1.39966e-06 -4.38283e-06 6.8426e-06 -5.46587e-06 -0.00108861 -0.000792793 -0.00101327 0.004 312.024 2.84112 
207 1 1 -0.0194911 -0.00168732 0.00389526 0 0 0 -3.90108e-06 4.30963e-06 5.0124e-06 -3.40152e-06 7.54252e-06 -1.61429e-05 0.000162223 -0.000577282 6.92734e-05 0.004 336.985 5.37728 
69 1 1 -0.0111572 -0.00264554 0.0039302 0 0 0 -4.47932e-06 1.36658e-06 6.37157e-06 -1.98271e-06 4.92255e-06 -1.46059e-05 0.00011422 -0.000812693 -0.0002872 0.004 396.647 7.05904 
221 1 1 0.00874804 -0.00448989 0.00393211 0 0 0 -1.14352e-05 1.32282e-06 1.3219e-05 -1.32216e-06 2.49744e-06 -8.47967e-06 0.000977893 -0.0013253 -0.00129912 0.004 702.911 -6.95596 
457 1 1 0.0163505 -0.00208061 0.00395937 0 0 0 -1.17616e-05 -3.18711e-07 1.49323e-05 -2.85251e-07 3.37642e-07 -7.30857e-06 -0.0015865 -0.00221392 -0.000492581 0.004 759.803 -6.42065 
155 1 1 0.0378912 -0.00224685 0.00393697 0 0 0 -1.32933e-05 2.11455e-06 1.56601e-05 1.69623e-06 -5.57202e-07 -5.76085e-06 -0.000585742 -0.00320943 -0.00162581 0.004 798.73 -0.546325 
665 1 1 0.0459183 -0.00307627 0.00394261 0 0 0 -6.08273e-06 -2.63922e-07 3.13608e-06 2.19014e-06 -1.68962e-06 -1.11104e-06 0.00089967 -0.00143882 0.0010888 0.004 799.779 -0.13492 
120 1 1 0.00918487 -0.0371091 0.00876946 0 0 0 -5.22809e-06 3.16712e-06 -5.01475e-06 8.17669e-07 -1.10148e-05 -8.3298e-06 0.000657889 -0.001188 9.14355e-05 0.004 680.971 -6.85796 
9 1 1 -0.0247146 -0.033359 0.00937633 0 0 0 -1.26632e-05 -5.34696e-06 -1.66538e-05 -2.52509e-06 -2.41347e-06 -1.03168e-05 -0.000321877 -0.000681098 0.000675951 0.004 315.193 3.76214 
101 1 1 -0.0188614 -0.0277191 0.00955163 0 0 0 -1.38569e-05 -2.91632e-06 -1.7637e-05 -1.1979e-06 -4.2187e-06 -1.6984e-05 -0.000776409 -0.000951432 0.000346717 0.004 328.137 5.21962 
48 1 1 0.0221998 -0.0293138 0.00920041 0 0 0 -7.53462e-06 5.52778e-06 3.44812e-06 -6.6285e-07 -8.66678e-06 -1.15206e-05 5.07285e-06 0.000161515 -0.000272904 0.004 772.188 -4.86395 
75 1 1 0.02936 -0.0261745 0.00787429 0 0 0 -6.78796e-06 5.56199e-06 7.16692e-06 -2.11297e-06 -6.07958e-06 -1.00071e-05 0.00120549 -0.000174486 0.000369048 0.004 791.231 -2.41788 
46 1 1 -0.0327912 -0.0205809 0.00958363 0 0 0 -1.42414e-05 -3.80813e-06 -1.80847e-05 -3.03925e-06 1.26771e-06 -1.60663e-05 0.00328363 0.000490291 -0.000421895 0.004 304.663 1.55967 
33 1 1 -0.013034 -0.0220249 0.00949585 0 0 0 -1.49686e-05 -2.12856e-06 -9.83133e-06 6.01631e-06 -3.81085e-06 -2.10282e-05 -0.000201187 -0.000193831 0.000173061 0.004 356.756 6.21636 
11 1 1 0.02689 -0.0187447 0.00924474 0 0 0 -1.25544e-05 5.55438e-06 1.99652e-05 -1.29556e-06 -7.79043e-06 -1.69061e-05 0.00150943 0.000610924 0.000437961 0.004 789.001 -2.82873 
71 1 1 -0.0372751 -0.00954698 0.00876632 0 0 0 -8.83119e-06 4.52648e-07 -7.7596e-06 -6.01277e-06 5.83047e-06 -1.01391e-05 0.00414507 0.000391975 -0.00284965 0.004 301.42 0.605855 
62 1 1 -0.0228081 -0.00771378 0.00814052 0 0 0 -1.08182e-05 5.22604e-06 1.06718e-06 -6.60806e-06 9.31211e-06 -1.47265e-05 0.00105893 0.00142296 -0.000315786 0.004 321.359 4.11802 
19 1 1 -0.00970665 -0.00905635 0.00849095 0 0 0 -1.04682e-05 2.5244e-06 8.9489e-06 -6.89061e-06 3.40042e-06 -2.96776e-05 0.000869633 -0.000742092 9.53125e-05 0.004 435.2 5.13237 
187 1 1 0.00796712 -0.00988201 0.00975764 0 0 0 -3.32249e-05 5.83432e-06 1.54395e-05 -1.96156e-05 -9.88583e-06 -9.01648e-06 -0.00125511 -0.00665002 0.00311636 0.004 697.383 -9.1584 
157 1 1 0.0395816 -0.00751948 0.0096312 0 0 0 -1.97991e-05 -5.22188e-07 2.37392e-05 2.11995e-06 -3.30705e-08 -1.11415e-05 0.00238363 -5.63074e-06 0.00276125 0.004 799.457 -0.286278 
18 1 1 0.00229116 -0.00404904 0.00852667 0 0 0 -1.17194e-05 2.01799e-07 2.66059e-05 -5.39616e-06 6.7124e-06 -2.59402e-05 0.00205685 0.00145218 0.000606941 0.004 580.577 -1.61269 
185 1 1 -0.00531147 -0.045735 0.0104439 0 0 0 -4.29052e-06 -4.63545e-06 -7.09615e-06 -7.83275e-07 -4.13314e-06 -5.68555e-06 -0.000905317 -0.00147852 0.000781536 0.004 463.105 4.63658 
83 1 1 0.00256736 -0.0459473 0.0112662 0 0 0 -3.32779e-06 -2.08861e-06 -9.33787e-06 1.20694e-07 -5.37155e-06 -3.07518e-06 -0.00233752 0.0017428 0.000105956 0.004 579.464 -3.82494 
58 1 1 -0.0218568 -0.0405821 0.011277 0 0 0 -9.52434e-06 -1.44732e-06 -9.94694e-06 -1.60681e-06 -6.71654e-07 -5.73639e-06 -0.00145733 -0.000409239 0.00155546 0.004 322.75 4.95926 
105 1 1 -0.013586 -0.043966 0.0108788 0 0 0 6.12141e-07 -2.94252e-06 -6.93595e-06 3.65556e-06 -2.45762e-06 -5.89519e-06 -0.00110347 0.00186548 -0.000702714 0.004 352.383 8.11343 
223 1 1 0.0103957 -0.0448674 0.0106707 0 0 0 -2.40315e-06 -9.36146e-07 -8.52641e-06 7.91063e-07 -5.68119e-06 -2.56588e-06 -0.0013273 -0.00205105 0.000533055 0.004 673.377 -7.43935 
217 1 1 0.0179432 -0.0424253 0.0108281 0 0 0 -2.04882e-06 4.36956e-07 -1.40359e-06 5.7004e-07 -4.22295e-06 -3.52988e-06 -0.000260697 -0.00055437 4.75793e-06 0.004 735.55 -7.49271 
6 1 1 -0.0162614 -0.0350311 0.0113116 0 0 0 -1.17328e-05 -5.2629e-06 -2.35151e-05 4.52052e-07 -4.63026e-06 -1.82863e-05 0.00138808 0.00431388 -0.00172937 0.004 347.139 6.52244 
151 1 1 -0.00801308 -0.0382602 0.0108116 0 0 0 -4.11018e-06 -9.68926e-06 -1.72472e-05 3.01738e-06 -8.03656e-06 -1.39961e-05 0.00109995 -0.000284635 0.000231551 0.004 416.638 6.91716 
2 1 1 0.000443925 -0.038308 0.0102711 0 0 0 -6.54503e-06 -3.96415e-06 -1.2924e-05 3.47947e-06 -1.01726e-05 -1.1913e-05 0.00113138 -0.000454852 7.98852e-05 0.004 547.767 0.133429 
117 1 1 0.0249195 -0.0387267 0.0109177 0 0 0 -2.14931e-06 6.53485e-07 -4.49445e-07 1.21533e-06 -6.02931e-06 -4.30168e-06 -0.000195383 -3.2545e-06 7.68622e-05 0.004 773.836 -5.09012 
13 1 1 -0.0323455 -0.0327547 0.0115371 0 0 0 -9.5676e-06 -5.29303e-06 -1.42765e-05 -1.99124e-06 -1.29873e-06 -8.72381e-06 -0.000682923 -0.000475989 -5.85884e-05 0.004 305.981 2.0097 
193 1 1 -0.00982575 -0.0305005 0.0107687 0 0 0 -1.27586e-05 -8.33967e-06 -2.54333e-05 -1.53952e-07 -7.19095e-06 -2.79658e-05 -0.00241702 -0.00424978 0.00146919 0.004 405.637 7.31061 
47 1 1 -0.00133754 -0.0305433 0.010385 0 0 0 -1.11735e-05 -4.93115e-06 -1.29714e-05 8.77505e-07 -1.25926e-05 -1.98242e-05 0.00111351 -0.00265669 0.000994197 0.004 526.954 1.92512 
153 1 1 0.00656466 -0.0300231 0.0113664 0 0 0 -1.07531e-05 4.58075e-07 -1.95459e-06 -1.47537e-06 -1.12275e-05 -1.9818e-05 0.00170388 -0.000684256 0.000961959 0.004 643.098 -5.16439 
41 1 1 0.0148076 -0.0317914 0.0106541 0 0 0 -8.99284e-06 4.17914e-06 2.82943e-06 -2.45624e-06 -1.15291e-05 -1.51719e-05 0.000638664 -0.000805339 0.000709641 0.004 733.382 -7.53072 
163 1 1 0.0311565 -0.0339183 0.0111115 0 0 0 -3.23128e-06 1.74686e-06 1.28826e-07 1.11609e-06 -6.44962e-06 -7.42834e-06 0.000196568 -0.00046116 0.000300742 0.004 791.127 -2.50588 
214 1 1 -0.0375015 -0.0268265 0.0107141 0 0 0 -8.96776e-06 -4.68255e-06 -1.49195e-05 -2.24623e-06 -4.17317e-07 -1.02601e-05 -0.000228873 0.00323575 -0.00027215 0.004 302.813 1.10051 
210 1 1 0.0364694 -0.0280971 0.0111135 0 0 0 -3.42412e-06 2.06821e-06 3.43898e-06 2.31368e-07 -3.74801e-06 -7.24444e-06 0.000519225 -2.14741e-05 -6.53971e-05 0.004 797.218 -1.05386 
108 1 1 -0.0260915 -0.0246403 0.0109306 0 0 0 -1.51988e-05 -4.73151e-06 -2.96824e-05 -2.13132e-06 -2.8307e-07 -2.35885e-05 -0.000542941 -0.00113087 0.00159781 0.004 312.619 3.12502 
40 1 1 -0.00551108 -0.0238696 0.0113288 0 0 0 -1.67056e-05 -4.16806e-06 -1.21234e-05 4.73084e-06 -6.84809e-06 -3.07798e-05 0.00257288 -0.0019625 -0.000357872 0.004 459.441 4.9772 
55 1 1 0.00236212 -0.0232851 0.0108251 0 0 0 -1.50871e-05 -1.18999e-07 4.74736e-06 9.63671e-07 -8.35103e-06 -2.60351e-05 0.000710069 -0.00206146 0.000572809 0.004 590.455 -2.18576 
91 1 1 0.0120918 -0.0243836 0.0101857 0 0 0 -1.30439e-05 5.57472e-06 1.09792e-05 -1.85835e-06 -1.17407e-05 -1.99623e-05 0.00111477 -0.000579699 0.000274379 0.004 714.182 -7.81141 
112 1 1 0.0192794 -0.020536 0.0105075 0 0 0 -1.59384e-05 5.56745e-06 2.097e-05 -2.18321e-06 -8.56452e-06 -2.5008e-05 0.000215948 -0.000699196 -0.000191412 0.004 763.332 -6.0861 
178 1 1 0.0318658 -0.0225253 0.014479 0 0 0 -1.09897e-05 2.46791e-06 1.28819e-05 1.02953e-06 -6.71773e-06 -1.60904e-05 0.000519388 -0.000681648 0.00038288 0.004 795.924 -1.41128 
131 1 1 0.0407765 -0.0214683 0.0110513 0 0 0 -5.39694e-06 2.20334e-06 5.22138e-06 1.26111e-06 -2.55596e-06 -5.8442e-06 0.000419652 0.000452427 0.000465648 0.004 798.971 -0.486062 
160 1 1 -0.041472 -0.0199398 0.0108132 0 0 0 -7.25951e-06 -5.69063e-07 -6.94536e-06 -3.34581e-06 1.39078e-06 -6.44905e-06 8.07841e-05 -0.0005741 -0.000555863 0.004 300.835 0.413729 
43 1 1 -0.0361085 -0.0151005 0.0142599 0 0 0 -1.69848e-05 -2.79774e-06 -2.1984e-05 -5.84504e-06 3.31628e-06 -2.08841e-05 -0.00285393 0.000607606 0.000808843 0.004 302.648 0.952899 
4 1 1 -0.0270341 -0.0151184 0.0100742 0 0 0 -1.94786e-05 1.30462e-06 -1.2388e-05 -3.71876e-06 2.01306e-06 -2.19363e-05 0.00156418 0.00209859 0.00220315 0.004 310.412 2.73007 
104 1 1 -0.0203009 -0.0192302 0.0111979 0 0 0 -1.75765e-05 1.74112e-06 -2.17646e-05 -3.01738e-07 3.44126e-08 -3.04067e-05 0.000688968 -0.00167994 -0.00114315 0.004 327.311 4.83058 
20 1 1 -0.00745474 -0.0162217 0.0110958 0 0 0 -1.37483e-05 -6.64453e-07 9.17678e-07 5.2709e-07 -3.49683e-06 -3.8697e-05 0.00170948 -0.00183418 -0.000361017 0.004 451.756 5.10586 
45 1 1 0.000825147 -0.0164513 0.014605 0 0 0 -2.06238e-05 -3.7763e-06 1.64937e-05 -6.05104e-06 5.52427e-07 -4.26387e-05 0.00292155 -0.000970145 -0.000568218 0.004 562.451 -0.780792 
159 1 1 0.00795164 -0.0177075 0.0113473 0 0 0 -1.74564e-05 4.3521e-06 1.97065e-05 -4.29842e-06 -9.27013e-06 -3.10679e-05 0.000748528 -0.00109422 0.000760841 0.004 678.126 -6.3222 
136 1 1 0.0347931 -0.0163371 0.0104656 0 0 0 -1.23482e-05 4.10943e-06 1.9587e-05 8.58237e-07 -6.16135e-06 -1.38561e-05 0.00213664 0.0010409 -4.95908e-05 0.004 797.545 -0.971917 
177 1 1 -0.0443274 -0.0125289 0.0108104 0 0 0 -6.14716e-06 8.9109e-07 -5.16885e-06 -3.2e-06 2.68357e-06 -5.1184e-06 0.000178544 0.000396045 0.000501074 0.004 300.475 0.252809 
139 1 1 -0.0168209 -0.0121092 0.0110441 0 0 0 -1.41658e-05 5.17954e-06 -6.78818e-06 -3.42597e-06 6.23776e-06 -3.30393e-05 0.001513 -0.00166738 0.000990975 0.004 347.323 5.76302 
211 1 1 -0.0020953 -0.0104148 0.0103077 0 0 0 -1.15006e-05 -4.6638e-07 1.88121e-05 -7.8936e-06 4.48681e-06 -3.53135e-05 0.000486146 -0.00143937 -0.00023442 0.004 519.598 1.55642 
54 1 1 0.0149155 -0.0138957 0.010831 0 0 0 -1.77834e-05 3.70286e-06 2.48888e-05 -4.61923e-06 -7.4577e-06 -2.26978e-05 -0.00010077 1.65833e-05 -0.000232356 0.004 747.723 -6.89712 
84 1 1 0.023272 -0.0118009 0.0106604 0 0 0 -1.92341e-05 2.9802e-06 3.26062e-05 -1.63937e-06 -5.80235e-06 -2.12822e-05 -0.000224069 -2.71655e-05 0.000329696 0.004 784.517 -3.70297 
180 1 1 0.0438204 -0.0140997 0.0110465 0 0 0 -6.79907e-06 2.33286e-06 7.26652e-06 9.94515e-07 -2.59978e-06 -6.73164e-06 0.000735067 3.02831e-05 7.88946e-05 0.004 799.708 -0.173376 
103 1 1 0.0174441 -0.0063656 0.0105708 0 0 0 -2.13083e-05 -1.2137e-06 3.56126e-05 -3.23258e-06 -7.25576e-07 -1.92955e-05 0.00145269 0.000453595 0.000758615 0.004 763.158 -6.12105 
156 1 1 0.0308891 -0.00946109 0.0106301 0 0 0 -1.64922e-05 3.84349e-06 3.15529e-05 -2.90879e-07 -8.44379e-06 -1.63764e-05 0.000459737 -0.000324549 0.000556442 0.004 794.524 -1.79686 
197 1 1 -0.045783 -0.0047112 0.0107571 0 0 0 -2.71921e-06 -1.24341e-07 4.60547e-07 -4.63271e-06 2.16026e-06 -2.45219e-06 0.000507494 -0.000131251 -0.000707816 0.004 300.246 0.144295 
87 1 1 -0.0386059 -0.00381155 0.0141382 0 0 0 -9.68153e-07 -3.30003e-06 5.47879e-06 -8.68639e-06 6.17599e-06 -6.39724e-06 -0.000817208 -0.000409702 -0.000442128 0.004 300.898 0.412364 
130 1 1 -0.0313596 -0.00387388 0.0107776 0 0 0 -4.54798e-07 8.22179e-06 1.89777e-06 -1.48322e-05 1.83888e-05 -4.50779e-06 0.00128343 0.00100424 0.00323121 0.004 304.471 1.44111 
604 1 1 -0.0224594 -0.000300917 0.0110798 0 0 0 -1.03036e-05 5.77097e-06 8.83387e-06 -9.41892e-06 1.49087e-05 -3.10782e-05 5.41166e-05 -0.000825438 0.000861568 0.004 329.044 4.54355 
146 1 1 -0.0155077 -0.0040073 0.0103915 0 0 0 -9.65584e-06 5.14125e-06 1.02199e-05 -6.23138e-06 1.27346e-05 -3.03689e-05 -9.09111e-05 -0.000259373 -0.00117618 0.004 370.616 6.12994 
57 1 1 -0.00517515 -0.00310611 0.0111957 0 0 0 -1.28902e-05 -3.88126e-06 2.77573e-05 -7.58962e-06 1.27831e-05 -3.90596e-05 0.00306338 -0.0023285 -0.000972994 0.004 487.581 3.66204 
493 1 1 0.0116957 -0.000875053 0.0103668 0 0 0 -2.37187e-05 -6.80026e-06 3.72024e-05 -3.47359e-07 6.52384e-06 -2.18536e-05 -0.00120134 -0.00257518 -0.000692675 0.004 724.787 -7.62662 
31 1 1 0.0250484 -0.00405414 0.0104602 0 0 0 -2.25441e-05 7.199e-07 3.75576e-05 8.42922e-07 -5.20943e-06 -1.73821e-05 0.000145905 -0.000310729 0.0001126 0.004 785.006 -3.57922 
588 1 1 0.0325998 -0.00174521 0.0105432 0 0 0 -1.96487e-05 2.65214e-06 3.16923e-05 2.68803e-06 -7.57437e-06 -1.13362e-05 0.000613122 -0.000199936 0.000517505 0.004 794.362 -1.79475 
63 1 1 0.045924 -0.00327878 0.0119253 0 0 0 -1.10193e-05 9.63565e-07 1.27642e-05 3.3228e-06 -3.45408e-06 -7.84522e-06 -0.0010064 0.00293883 -0.00105121 0.004 799.651 -0.190478 
107 1 1 -0.00850632 -0.045273 0.0176771 0 0 0 -9.13519e-06 -7.18342e-06 -1.16539e-05 -9.39351e-07 -4.68884e-06 -5.8469e-06 -0.00104198 0.00146318 0.00160687 0.004 440.527 5.99058 
222 1 1 -0.00141959 -0.04181 0.0171131 0 0 0 -1.12915e-05 -1.03434e-05 -2.16347e-05 -9.68832e-07 -9.74051e-06 -1.37884e-05 0.00123304 0.000613037 -0.00169872 0.004 533.798 1.38767 
142 1 1 0.00615865 -0.0401387 0.0154213 0 0 0 -9.40001e-06 -8.6258e-06 -1.64587e-05 -5.33798e-07 -1.04102e-05 -1.03487e-05 0.00217917 -0.000858674 0.00116412 0.004 628.039 -4.42583 
172 1 1 0.0116014 -0.0446445 0.0189548 0 0 0 -6.53361e-06 -5.977e-06 -1.02177e-05 -2.7534e-07 -6.30791e-06 -5.06499e-06 -0.000851592 -0.0020778 0.00189254 0.004 687.589 -7.682 
109 1 1 0.0204197 -0.0412797 0.0183142 0 0 0 -4.23324e-06 -5.15597e-07 -2.55004e-06 -5.68409e-06 -4.00073e-06 -2.7809e-06 -6.49811e-05 0.000613524 0.000487532 0.004 764.282 -6.31175 
150 1 1 -0.0273271 -0.0370831 0.0158763 0 0 0 -1.15984e-05 -3.43271e-06 -1.40978e-05 -1.86373e-06 8.08101e-07 -7.39e-06 -0.00074628 0.00037428 0.000653695 0.004 313.092 3.41558 
38 1 1 -0.0197787 -0.0373719 0.0182825 0 0 0 -1.35125e-05 -6.08084e-06 -3.1922e-05 1.37167e-06 3.43223e-06 -1.84559e-05 -0.000765607 0.00399251 -0.0009474 0.004 334.811 5.86012 
199 1 1 -0.0118545 -0.0370265 0.0176502 0 0 0 -1.64685e-05 -1.75466e-05 -3.73525e-05 9.02837e-07 -5.76499e-06 -2.54217e-05 5.28539e-05 -0.00378082 -0.00164674 0.004 370.433 7.52013 
93 1 1 0.0137643 -0.0377759 0.0156809 0 0 0 -1.01213e-05 -2.1366e-06 -5.06052e-06 -4.72673e-06 -9.62533e-06 -1.29585e-05 0.00102465 -0.00173588 0.00101814 0.004 715.296 -7.64791 
64 1 1 0.0280176 -0.0365092 0.0179286 0 0 0 -5.55667e-06 -8.09153e-07 -1.35886e-06 -4.56614e-06 -7.55823e-06 -1.31268e-05 -0.000493058 -0.000710397 0.00128737 0.004 790.348 -2.89119 
22 1 1 -0.0327402 -0.032422 0.0194568 0 0 0 -1.1333e-05 -5.19582e-06 -2.06307e-05 -1.64388e-06 4.17638e-06 -1.25247e-05 -0.00168084 0.00187194 0.000541908 0.004 305.486 1.83835 
174 1 1 -0.0224318 -0.0302105 0.0162619 0 0 0 -1.90157e-05 -5.09922e-06 -3.20583e-05 -1.5084e-06 4.33636e-06 -2.21547e-05 -0.00132271 0.000695835 0.000519149 0.004 323.936 4.91988 
32 1 1 -0.00428307 -0.0343966 0.0166777 0 0 0 -1.4666e-05 -1.13409e-05 -2.81858e-05 6.89956e-07 -1.03812e-05 -2.70573e-05 -0.00165298 -0.00195212 0.0020858 0.004 485.347 4.5992 
128 1 1 0.00347465 -0.0331319 0.0179962 0 0 0 -1.86434e-05 -1.14424e-05 -1.60182e-05 -3.82179e-06 -1.03409e-05 -2.33971e-05 0.00116162 -0.00242435 -0.00076333 0.004 587.099 -1.7007 
88 1 1 0.0113688 -0.0304833 0.0177102 0 0 0 -2.04726e-05 -6.51357e-06 1.3142e-06 -8.52301e-06 -1.26412e-05 -2.80987e-05 0.00236825 -0.00194868 0.000224587 0.004 708.878 -7.3049 
137 1 1 0.0208047 -0.0338185 0.0156335 0 0 0 -8.11585e-06 1.33722e-06 2.95507e-07 -1.84204e-06 -7.26828e-06 -1.1748e-05 0.00089475 -0.0004629 0.000628578 0.004 776.012 -5.46816 
154 1 1 0.033982 -0.0311387 0.0180552 0 0 0 -5.61626e-06 -1.85835e-06 -5.0657e-07 -4.03739e-07 -6.00716e-06 -1.08183e-05 0.000561644 -0.000292133 0.000611064 0.004 796.146 -1.32133 
52 1 1 -0.0319909 -0.0252343 0.0161627 0 0 0 -1.60557e-05 -9.70088e-06 -3.81942e-05 -2.45797e-06 2.32523e-06 -2.65178e-05 -0.00109365 -0.000143581 0.000637559 0.004 305.772 1.77959 
80 1 1 -0.00960088 -0.0265066 0.0175809 0 0 0 -2.71222e-05 -8.38728e-06 -3.61711e-05 -2.08678e-06 1.07986e-06 -4.66166e-05 0.00149385 -0.000806141 -0.00159562 0.004 410.123 6.89135 
125 1 1 -0.00117355 -0.0267 0.0173745 0 0 0 -2.23978e-05 -9.61819e-06 -1.3708e-05 -2.05259e-06 -9.6044e-06 -3.3632e-05 -3.2039e-05 0.000345591 0.00124397 0.004 525.587 2.68776 
72 1 1 0.0179273 -0.0264316 0.0156372 0 0 0 -1.60436e-05 8.89947e-07 1.40911e-05 -2.64907e-06 -1.23017e-05 -3.32763e-05 0.00225401 0.000503234 0.000951977 0.004 758.997 -6.62528 
34 1 1 0.0269647 -0.0287251 0.0154183 0 0 0 -9.06335e-06 4.37646e-07 2.74747e-06 6.43082e-07 -9.42541e-06 -1.82532e-05 0.00180211 -0.00022644 7.28839e-05 0.004 789.247 -2.70813 
218 1 1 -0.0395968 -0.0234663 0.0176917 0 0 0 -9.60105e-06 -6.38943e-06 -1.80154e-05 -1.95467e-06 -4.78005e-07 -1.41518e-05 0.0015236 0.00310081 -0.00206002 0.004 301.428 0.609149 
70 1 1 -0.0247174 -0.0230258 0.0185789 0 0 0 -2.466e-05 -5.36001e-06 -4.60273e-05 -3.35038e-06 9.0237e-06 -3.92537e-05 -0.000401192 -0.00104857 0.000675889 0.004 317.58 3.603 
132 1 1 -0.0171322 -0.0242635 0.0164747 0 0 0 -2.37975e-05 -1.99091e-06 -3.47848e-05 -2.8308e-06 4.92444e-06 -3.86494e-05 -0.000124773 -0.00032451 0.000753574 0.004 344.059 5.89474 
196 1 1 0.00716655 -0.023789 0.0170605 0 0 0 -2.32256e-05 -3.88575e-06 1.17454e-05 -1.25576e-06 -1.01328e-05 -4.18728e-05 0.00152676 -0.000813489 0.000290227 0.004 670.129 -5.80453 
362 1 1 0.0243874 -0.0214292 0.0170619 0 0 0 -1.41303e-05 -8.95119e-07 2.97913e-05 -5.39048e-06 -1.03561e-05 -3.74739e-05 0.0036924 0.00244789 0.000843945 0.004 789.297 -2.80729 
49 1 1 0.0387628 -0.0248027 0.0179815 0 0 0 -6.13043e-06 -2.74093e-07 4.63142e-06 -1.33322e-06 -2.64095e-06 -9.46335e-06 0.000699325 -0.000557124 0.000217472 0.004 798.633 -0.612517 
173 1 1 -0.0431191 -0.0163148 0.0177079 0 0 0 -7.81086e-06 4.91248e-07 -1.05306e-05 -3.29586e-07 1.94795e-06 -9.58801e-06 -0.000505442 0.00171106 0.000474299 0.004 301.024 0.447367 
50 1 1 -0.0295064 -0.0167659 0.0182814 0 0 0 -2.24546e-05 -2.1467e-06 -3.52521e-05 -3.90899e-06 1.27031e-05 -3.48764e-05 0.00463887 -0.000164317 -0.00109027 0.004 308.215 2.10871 
202 1 1 -0.0134618 -0.0172167 0.0161111 0 0 0 -2.29201e-05 -2.5802e-06 -1.91335e-05 -1.80803e-06 -3.30558e-06 -5.38471e-05 0.00262226 -0.00256987 -0.00183953 0.004 377.932 6.58802 
86 1 1 -0.00524856 -0.0199157 0.0183761 0 0 0 -2.74618e-05 -1.15207e-05 -7.89666e-06 -5.79167e-07 -6.51365e-07 -4.92301e-05 0.0041319 -0.00284957 -0.000203935 0.004 477.614 4.72657 
129 1 1 0.0138597 -0.0196295 0.0162863 0 0 0 -2.18386e-05 -6.7906e-07 2.82335e-05 -3.2574e-06 -1.17986e-05 -3.76427e-05 0.00236343 -0.00197076 4.0142e-05 0.004 733.817 -6.65994 
82 1 1 0.0291401 -0.0151358 0.0159326 0 0 0 -1.77604e-05 1.20123e-06 3.74699e-05 -3.91656e-06 -8.19537e-06 -2.97545e-05 0.00153738 -0.000507809 0.000328963 0.004 794.626 -1.76154 
1 1 1 0.0424683 -0.0178049 0.0178803 0 0 0 -7.48089e-06 4.3159e-07 9.32626e-06 2.08942e-08 -1.19141e-06 -7.17466e-06 0.000363637 0.000648924 -2.86629e-05 0.004 799.366 -0.324398 
168 1 1 -0.0224797 -0.0136304 0.0164172 0 0 0 -2.18914e-05 8.34222e-07 -2.13601e-05 -1.37583e-06 8.53044e-06 -4.42042e-05 0.00131025 -0.00101373 -5.24228e-06 0.004 324.624 4.40008 
121 1 1 -0.00514884 -0.0120184 0.0174573 0 0 0 -2.54773e-05 -9.67105e-06 1.80475e-05 -1.13592e-05 2.13781e-06 -5.55727e-05 0.00200331 -0.00233746 0.000208959 0.004 493.278 2.97851 
28 1 1 0.00814323 -0.0139813 0.0183181 0 0 0 -2.63997e-05 -1.03839e-05 4.48445e-05 -1.67279e-05 2.90686e-06 -5.25945e-05 0.00453745 -0.000761895 0.000621415 0.004 688.737 -7.78517 
42 1 1 0.0200409 -0.0148104 0.0172664 0 0 0 -2.19625e-05 -1.67595e-06 5.27005e-05 -9.16003e-06 -1.05898e-05 -4.68079e-05 0.00245639 -0.000291468 0.000751251 0.004 773.29 -4.70697 