ITEM: TIMESTEP
5600
ITEM: NUMBER OF ATOMS
890
ITEM: BOX BOUNDS mm mm mm
-0.05 0.05
-0.05 0.05
0 0.15
ITEM: ATOMS id type type x y z ix iy iz vx vy vz fx fy fz omegax omegay omegaz radius f_Temp[0] f_heatFlux[0] 
59 1 1 -0.00117624 -0.0460411 0.00391888 0 0 0 -0.00292912 -0.00301459 0.0081064 0.00737061 0.00722707 0.0111154 1.89104 0.649969 -1.60979 0.004 300 0 
170 1 1 -0.0175294 -0.0425457 0.00397429 0 0 0 0.00642377 0.00251909 0.000477837 0.0195051 -0.00229635 -0.0030852 -0.330551 -0.604591 -1.06645 0.004 300 0 
15 1 1 -0.00990783 -0.0449304 0.00398335 0 0 0 0.00692862 0.00809567 0.0106958 0.00932286 0.00175891 -0.00980952 3.93665 5.564 4.56486 0.004 300 0 
116 1 1 0.00598176 -0.0425913 0.00395554 0 0 0 0.0294246 -0.043935 -0.00454354 0.0395646 0.00735955 0.0303064 -2.62533 1.11029 2.12622 0.004 300 0 
158 1 1 0.0139789 -0.0438711 0.00395476 0 0 0 0.0313518 0.0139271 0.0072373 -0.0163533 0.0183699 -0.0049751 0.403477 2.74331 -2.98284 0.004 300 0 
98 1 1 0.0216942 -0.0406387 0.00392603 0 0 0 0.00176414 0.00748068 -0.000451165 -0.011038 -0.000186438 -0.0160284 0.366383 0.929824 -6.18083 0.004 300 0 
169 1 1 -0.0246236 -0.0389137 0.00392246 0 0 0 0.0302459 -0.00919594 -0.00306403 -0.026129 -0.00595836 0.0428063 1.65984 5.65795 -2.65419 0.004 300 0 
89 1 1 -0.0118088 -0.0367593 0.00398406 0 0 0 -0.0121979 -0.0155744 0.00530174 -0.025442 -0.00345521 -0.00104714 -0.984416 1.22993 6.98598 0.004 300 0 
152 1 1 -0.00409918 -0.0386513 0.00392402 0 0 0 -0.00137914 -0.000826044 0.0021959 -0.0299951 -0.00597303 0.00329507 -0.0973382 0.600782 -3.54231 0.004 300 0 
23 1 1 0.0152617 -0.0360222 0.00395774 0 0 0 0.00527164 0.0216252 0.00229265 0.00602451 0.00818536 -0.00814525 -0.300228 -2.48316 5.71365 0.004 300 0 
118 1 1 -0.0309595 -0.0340686 0.00400148 0 0 0 0.0309591 -0.019674 -0.024811 0.0240193 -0.0121639 -0.0182938 0.132056 -1.16624 4.97696 0.004 300 0 
30 1 1 -0.0189736 -0.0333059 0.00392918 0 0 0 0.022842 0.0155635 0.00296877 -0.0506933 -0.0108895 0.036833 0.582325 -0.0668179 -0.578196 0.004 300 0 
215 1 1 -0.00569962 -0.0308435 0.00395242 0 0 0 0.0554962 0.0150008 0.00601211 -0.106853 -0.0266614 -0.0239806 0.0246026 -1.50716 2.99006 0.004 300 0 
74 1 1 0.00201912 -0.0327553 0.00395954 0 0 0 -0.0286894 0.00592083 0.0186992 0.0294765 -0.00179901 -0.0063243 2.13 -1.53779 1.6099 0.004 300 0 
198 1 1 0.0250742 -0.0332833 0.00399976 0 0 0 -0.0121023 0.0501478 -0.0154091 -0.00450395 -0.00226309 -0.0189299 -9.39178 -4.00299 6.31292 0.004 300 0 
161 1 1 0.0329826 -0.0321268 0.00395996 0 0 0 -0.00529412 -0.00933957 0.00245201 -0.0096884 -0.0130881 0.0010086 0.637259 -0.315774 1.01523 0.004 300 0 
8 1 1 -0.0325673 -0.0262854 0.00393577 0 0 0 -0.0132675 -0.0120868 -0.0113476 0.021017 0.00647242 0.0457697 4.11647 2.80942 -9.93361 0.004 300 0 
12 1 1 -0.0246752 -0.0277209 0.00391384 0 0 0 -0.0138634 -0.0429128 0.00287695 0.0121379 0.00134581 -0.0109465 7.86764 -3.3363 6.81444 0.004 300 0 
188 1 1 -0.0131193 -0.0278861 0.00397504 0 0 0 0.0456247 0.0153615 -0.00597207 -0.0281516 -0.0552931 -0.0162259 0.939829 -0.584346 -0.293336 0.004 300 0 
77 1 1 -0.000274219 -0.0250487 0.00393183 0 0 0 0.0656255 -0.00776072 0.00210651 -0.0201514 -0.112437 0.00195548 -1.99125 4.32081 -4.78243 0.004 300 0 
24 1 1 0.00962418 -0.0304328 0.00395014 0 0 0 -0.039208 -0.0163773 0.000466207 -0.0172893 0.0126197 -0.00133371 3.87576 -7.32902 -1.32528 0.004 300 0 
113 1 1 0.0172936 -0.0283421 0.00390037 0 0 0 -0.0757289 0.0405865 0.018144 0.0129387 -0.000805448 -0.000361819 -8.43978 -10.5997 14.7505 0.004 300 0 
183 1 1 0.0382386 -0.0256114 0.00394796 0 0 0 0.00630132 0.0139811 0.00743037 0.00757391 0.0133882 0.00491674 -0.710708 1.01447 6.35662 0.004 300 0 
162 1 1 -0.0398701 -0.0227022 0.00395776 0 0 0 0.0185192 -0.0324061 -0.0104387 -0.0106861 0.0155864 -0.0101185 4.70019 4.08676 -1.38624 0.004 300 0 
148 1 1 -0.0188091 -0.0222608 0.00393342 0 0 0 -0.00725587 -0.0036689 -0.0198912 -0.00773238 0.0283056 0.0325079 1.94786 -2.0424 -2.41353 0.004 300 0 
195 1 1 -0.00768747 -0.0220648 0.00398788 0 0 0 0.0607361 -0.0114362 0.00797326 0.00320201 -0.0286448 -0.0135523 2.79957 2.70892 3.95784 0.004 300 0 
179 1 1 0.007418 -0.0227921 0.00397745 0 0 0 0.019818 0.0106421 -0.041187 -0.08382 0.000825915 -0.0886941 -2.75947 -5.95681 -1.24447 0.004 300 0 
95 1 1 0.0152209 -0.0206694 0.00395935 0 0 0 -0.0116176 0.0571801 0.0158895 -0.0990436 -0.0873507 -0.00212853 -1.9907 -2.99383 -12.287 0.004 300 0 
76 1 1 0.0231271 -0.0229751 0.00392202 0 0 0 -0.0390727 0.00467389 0.00524597 0.00744171 0.012767 0.0411031 -1.38867 -9.87308 -15.0203 0.004 300 0 
53 1 1 -0.0280566 -0.0197433 0.00399342 0 0 0 0.024872 -0.0471024 -0.00720601 0.0152805 0.0549917 -0.0254734 2.99763 5.03109 2.95283 0.004 300 0 
213 1 1 -0.0133899 -0.0164327 0.00449499 0 0 0 0.00505489 -0.0367663 -0.0521314 0.040979 -0.0215362 -0.0295682 -2.43697 3.70394 2.17943 0.004 300 0 
5 1 1 0.00951235 -0.0151198 0.00394752 0 0 0 -0.0405482 0.0380228 0.00821366 -0.0127019 -0.0288406 0.00206877 -4.91955 2.23699 14.2155 0.004 300 0 
96 1 1 0.0208217 -0.015098 0.00398856 0 0 0 4.94837e-05 0.00839228 0.0134926 0.00561337 -0.0432023 -0.0269545 -3.79178 -1.62961 2.81891 0.004 300 0 
100 1 1 0.0327303 -0.0198437 0.00393904 0 0 0 -0.0268173 -0.0310548 0.00718897 0.0275552 -0.0197027 0.0289801 6.51174 -8.16197 -7.57844 0.004 300 0 
167 1 1 0.0420741 -0.0186015 0.00393552 0 0 0 0.00352667 0.0189845 0.0141277 0.00645937 0.0070235 0.022453 -1.00914 -1.2419 -0.885857 0.004 300 0 
65 1 1 -0.0433499 -0.0155402 0.0039729 0 0 0 0.00310028 -0.0324052 -0.0385334 0.00286932 0.0151685 0.0389159 -5.34029 -5.02307 3.02394 0.004 300 0 
102 1 1 -0.0354268 -0.0150155 0.00396655 0 0 0 0.00192656 -0.0303337 -0.00247878 0.0213531 -0.00966634 -0.00207231 5.28345 1.89948 1.16731 0.004 300 0 
124 1 1 -0.0287352 -0.0107278 0.00396195 0 0 0 0.0125857 -0.052458 -0.0343816 0.0102072 0.0287997 -0.0635516 4.64083 6.30781 0.533989 0.004 300 0 
220 1 1 -0.0218132 -0.0147873 0.00397828 0 0 0 0.0189185 -0.0334299 -0.00436318 0.00163345 -0.000392752 0.00521796 -1.36231 -0.683026 3.29807 0.004 300 0 
144 1 1 -0.00545438 -0.014437 0.00393669 0 0 0 -0.00278983 0.00824743 -0.00380465 0.039287 0.0223091 0.0167085 2.10133 6.9805 -2.80178 0.004 300 0 
26 1 1 0.00342381 -0.010014 0.00396827 0 0 0 -0.0650029 0.00795583 0.00927868 0.0352884 0.0142214 -0.0440077 2.03591 -1.05767 -2.71584 0.004 300 0 
200 1 1 0.0151074 -0.00950897 0.00395351 0 0 0 0.0429099 -0.0283383 -0.00914809 -0.0229428 0.0164757 0.00628584 -0.0351239 0.00644423 -3.25644 0.004 300 0 
194 1 1 0.0284954 -0.0131112 0.00394328 0 0 0 0.0339367 -0.0233914 -0.00635445 0.0165887 -0.0149736 0.0089134 0.927574 -0.872226 -5.71249 0.004 300 0 
37 1 1 0.0365551 -0.0128164 0.00395458 0 0 0 -0.050925 -0.0306712 0.0150239 0.00263246 -0.00829917 -0.0150491 4.74319 -3.46777 3.696 0.004 300 0 
219 1 1 0.0446643 -0.0110577 0.0038897 0 0 0 0.0118391 0.0216638 -0.00912116 -0.00229279 -0.0062025 0.0326439 -2.93497 1.6564 -2.39971 0.004 300 0 
636 1 1 -0.045343 -0.0078372 0.00394788 0 0 0 0.00486871 -0.0284725 -0.0237695 -0.00447861 0.0153765 0.0385792 5.23363 2.58584 -5.17076 0.004 300 0 
39 1 1 -0.0162821 -0.00904936 0.00393274 0 0 0 0.0331483 -0.0279158 -0.00945533 -0.0818424 0.0177106 0.00771974 -1.10111 -2.80248 -6.08443 0.004 300 0 
171 1 1 -0.00370274 -0.00650071 0.0039396 0 0 0 -0.0506783 0.0574821 0.00571539 0.0230625 0.0287466 0.00818334 -3.6861 -1.61184 4.34805 0.004 300 0 
21 1 1 0.0227816 -0.00743064 0.00394824 0 0 0 0.0240457 -0.00430259 -0.00172456 0.0364168 0.00565937 -0.000869514 -0.503256 2.64084 -6.41162 0.004 300 0 
17 1 1 0.0305148 -0.00544786 0.00394283 0 0 0 0.0193875 -0.0300208 -0.0195053 -0.00206546 0.0271495 -0.0199009 -0.0420568 0.377494 -0.852828 0.004 300 0 
477 1 1 -0.0422102 -0.000507756 0.00398161 0 0 0 -0.0673727 0.000567757 0.00378092 -0.00136952 0.0104572 -0.0152863 2.64117 -1.6671 2.8873 0.004 300 0 
140 1 1 -0.0350582 -0.00403974 0.00391382 0 0 0 -0.0418346 0.0216493 -0.00377154 -0.00249847 0.0140966 -0.0100329 3.55832 -2.24388 3.23249 0.004 300 0 
119 1 1 -0.0271669 -0.00292198 0.00397488 0 0 0 -0.0239514 -0.0421992 -0.000364338 -0.00963619 0.00750972 -0.020244 -0.304097 2.42185 -3.72749 0.004 300 0 
207 1 1 -0.0193106 -0.00171878 0.00390385 0 0 0 -0.0101489 -0.0484824 0.000652855 -0.0046203 -0.00739823 0.0113835 7.24147 -1.97787 3.60718 0.004 300 0 
69 1 1 -0.0107688 -0.00279082 0.00394884 0 0 0 -0.0998062 -0.0284003 -0.00749851 0.0072305 0.0137321 -0.00130731 -4.97999 -1.23351 5.25693 0.004 300 0 
221 1 1 0.0079963 -0.00347599 0.0039738 0 0 0 -0.00964775 -0.0172855 0.0106709 0.00291536 0.0201991 -0.00187653 0.411137 -1.47625 -0.433154 0.004 300 0 
457 1 1 0.0164583 -0.00167171 0.00400132 0 0 0 0.00132796 0.00237553 -0.0133259 -0.00646425 0.0164458 -0.0163692 -1.25501 -3.62555 7.88197 0.004 300 0 
155 1 1 0.0379863 -0.00263874 0.00393482 0 0 0 0.0204991 -0.0355984 0.00489192 -0.0269209 -0.0308314 0.0152216 3.71342 0.875467 1.07831 0.004 300 0 
665 1 1 0.0459215 -0.00322825 0.00396942 0 0 0 0.0193746 0.0136167 -0.0178097 -0.000393035 -0.00392422 -0.0461791 2.83507 -0.208758 1.4352 0.004 300 0 
2 1 1 0.0013502 -0.0382736 0.00964891 0 0 0 -0.0043095 -0.0208169 0.00736788 0.0131161 0.0335989 0.0162583 -1.59365 -0.414369 0.948605 0.004 300 0 
120 1 1 0.00919918 -0.0372705 0.00892167 0 0 0 -0.000834822 -0.00845187 -0.000878964 0.0044961 0.00608777 0.00198694 4.7489 0.304016 0.440452 0.004 300 0 
9 1 1 -0.0250772 -0.0333299 0.00954035 0 0 0 0.0367475 -0.0183006 0.011649 -0.0125897 0.071939 -0.0179797 -8.0953 -8.76714 -0.0344686 0.004 300 0 
214 1 1 -0.0373826 -0.0269169 0.0102106 0 0 0 0.0143872 -0.00980587 0.0100839 -0.0198336 0.00225414 -0.00485304 1.54869 -0.516516 -2.35489 0.004 300 0 
101 1 1 -0.0191347 -0.0277714 0.00963733 0 0 0 -0.0152606 -0.00724348 0.0160417 -0.0257139 0.0308065 0.0176408 -5.62922 5.49206 3.36136 0.004 300 0 
75 1 1 0.0294648 -0.0260627 0.00768209 0 0 0 -0.0505142 -0.0367393 0.00849606 -0.00344243 -0.00167656 0.0159549 -4.10896 6.26069 5.51992 0.004 300 0 
46 1 1 -0.0334509 -0.0199586 0.00989391 0 0 0 0.0236139 -0.0184793 -0.0012707 -0.0147603 -0.0310061 -0.0269368 -11.8602 -0.346843 -3.63952 0.004 300 0 
10 1 1 0.00164021 -0.0175756 0.00566783 0 0 0 0.0142588 -0.0127751 -0.0630416 0.0583384 0.118954 0.0594973 8.03269 1.97442 6.42981 0.004 300 0 
11 1 1 0.0269475 -0.0187079 0.00937788 0 0 0 -0.0059245 -0.00940754 0.0100221 0.0223255 0.0300978 0.0232493 -2.44064 5.20416 -2.68102 0.004 300 0 
71 1 1 -0.0374068 -0.00934575 0.00925794 0 0 0 -0.00787215 0.00701554 -0.0163181 -0.00696352 -0.0057954 0.00374312 1.45332 6.11485 4.69008 0.004 300 0 
62 1 1 -0.0227907 -0.00817223 0.00859442 0 0 0 0.0117876 -0.0276906 -0.0543846 0.00644455 0.00908609 -0.00907237 -2.61591 -4.26515 1.87647 0.004 300 0 
19 1 1 -0.00967635 -0.00934078 0.00830346 0 0 0 0.00104265 -0.00656363 0.0208045 0.00201532 0.0342761 -0.0121558 -1.26381 4.23117 8.9064 0.004 300 0 
187 1 1 0.00914622 -0.00913481 0.00948018 0 0 0 -0.0284738 -0.0475574 -0.00986668 0.00433614 -0.0113974 -0.00797502 7.04314 -2.02893 2.38524 0.004 300 0 
157 1 1 0.0389613 -0.00795717 0.00978255 0 0 0 0.0179813 -0.0476638 0.00845185 -0.00473931 0.00256409 -0.0112623 -1.2706 -5.76308 -0.391024 0.004 300 0 
18 1 1 0.00186492 -0.00419034 0.00915445 0 0 0 0.00624623 0.00657966 -0.013157 0.0471266 -0.083199 0.0641032 1.16732 7.70438 9.96523 0.004 300 0 
185 1 1 -0.00546689 -0.0457294 0.0105786 0 0 0 0.0138145 -0.00132576 0.0190378 -0.0133736 0.0252743 -0.0133827 1.09798 -1.47572 -2.84186 0.004 300 0 
83 1 1 0.00263683 -0.0459857 0.0108902 0 0 0 -0.022171 -0.0281988 0.0282135 -0.00701773 -0.0135866 0.0193214 -0.0681546 4.03609 -0.538114 0.004 300 0 
58 1 1 -0.0220338 -0.0404601 0.0112832 0 0 0 -0.00404834 0.0109104 0.0106919 0.0479159 -0.0548488 0.0272496 -0.276059 -4.46001 5.35957 0.004 300 0 
105 1 1 -0.0134218 -0.0426895 0.0108159 0 0 0 -0.000341706 0.0412119 -0.0025657 0.0079709 6.10319e-05 -0.00629726 -20.7922 -17.2077 0.517975 0.004 300 0 
223 1 1 0.0104901 -0.0448468 0.0110309 0 0 0 -0.0105078 2.79466e-05 -0.00860236 0.00130727 -0.0162093 -0.0111668 -2.15508 1.72353 1.19874 0.004 300 0 
217 1 1 0.0180119 -0.0423563 0.0107892 0 0 0 -0.0113223 -0.00188059 -0.0129733 -0.0347711 -0.000438209 -0.0164815 1.72223 -0.547482 -2.4838 0.004 300 0 
151 1 1 -0.00639338 -0.0378931 0.0115136 0 0 0 -0.00357825 -0.00578753 -0.00727456 0.00399419 0.0193567 0.0200791 -7.34047 -1.70488 6.05131 0.004 300 0 
117 1 1 0.0250259 -0.0386778 0.0108215 0 0 0 -0.0101021 -0.0100902 0.00983556 -0.0190353 -0.00181356 -0.00614378 0.938761 -4.04227 -0.480635 0.004 300 0 
13 1 1 -0.0324242 -0.0326835 0.0125214 0 0 0 0.0290286 -0.0186358 -0.0219091 0.0019946 0.0216451 0.00983107 2.51927 1.3177 0.891529 0.004 300 0 
6 1 1 -0.0162903 -0.0350102 0.0112212 0 0 0 0.0174534 0.0139184 0.00730675 0.0390464 -0.0352983 0.0123603 -6.85663 -2.45542 -11.1409 0.004 300 0 
193 1 1 -0.00964989 -0.0306712 0.0108299 0 0 0 0.035763 0.00143407 -0.00721114 -0.0421705 0.0317998 -0.0205519 7.32519 0.227139 -1.65562 0.004 300 0 
47 1 1 -0.00168738 -0.0310626 0.010915 0 0 0 0.00957382 -0.0201289 0.0463431 0.0298213 0.0211117 -0.0186612 6.53888 9.51616 -2.11854 0.004 300 0 
153 1 1 0.0068164 -0.0300862 0.0113758 0 0 0 0.0209037 0.00446869 0.0187782 -0.0481432 0.0117656 -0.013094 -7.76343 22.8309 -2.38178 0.004 300 0 
41 1 1 0.0145998 -0.0315916 0.0105976 0 0 0 -0.0465833 0.0158727 0.023788 0.0351828 0.0185443 -0.011925 5.48461 4.64102 11.4065 0.004 300 0 
163 1 1 0.0311901 -0.0338517 0.0116183 0 0 0 -0.0077036 -0.0117043 -0.0113947 0.00241472 -0.00536454 -0.0355368 -3.77163 6.31958 0.540483 0.004 300 0 
48 1 1 0.0223012 -0.0286476 0.0100275 0 0 0 -0.0572858 -0.0129245 -0.00614329 0.038528 -0.0846587 -0.0168498 16.5614 8.67169 -8.6054 0.004 300 0 
210 1 1 0.0364929 -0.0280668 0.0112973 0 0 0 -0.0130497 -0.014251 0.00705512 0.0122116 0.0211068 0.0047915 8.17219 -8.63755 -0.574813 0.004 300 0 
160 1 1 -0.0413564 -0.0201422 0.0114363 0 0 0 -0.00187166 -0.00947475 0.0181409 -0.00841989 0.0022366 -0.0166413 -10.1804 -3.28229 2.60354 0.004 300 0 
108 1 1 -0.0266096 -0.0239744 0.0106098 0 0 0 0.00823664 -0.0195687 -0.0146637 -0.0238471 -0.0264875 -0.0120427 -4.54577 1.5511 -11.2139 0.004 300 0 
33 1 1 -0.0132269 -0.0224105 0.00975696 0 0 0 0.0262688 -0.0210769 0.00621781 0.00231833 0.00828503 0.0270418 2.52162 1.4468 -4.71095 0.004 300 0 
40 1 1 -0.00529092 -0.0240099 0.011379 0 0 0 0.0302938 0.0133505 -0.00352482 -0.0195417 0.000722043 -0.0062731 -1.71716 -6.37915 -0.149658 0.004 300 0 
55 1 1 0.00265127 -0.0233211 0.0111052 0 0 0 0.0487425 0.0287684 0.0394991 -0.0130273 0.000810304 0.00541591 -4.96584 -11.602 -4.57359 0.004 300 0 
91 1 1 0.0119348 -0.0240714 0.0103533 0 0 0 -0.0080099 0.018883 0.000411013 0.0525081 -0.029768 0.0626275 13.584 -4.3022 2.05928 0.004 300 0 
112 1 1 0.0194095 -0.0212946 0.0107831 0 0 0 -0.0614895 0.0259772 0.00733473 0.00969855 0.0466265 0.0024127 12.2283 5.75583 0.876864 0.004 300 0 
178 1 1 0.0315391 -0.0226483 0.0146 0 0 0 -0.0118307 -0.0245108 -0.00560695 0.0776782 -0.00137558 -0.0264264 6.58215 -4.02074 6.78125 0.004 300 0 
131 1 1 0.0407394 -0.0214362 0.0112261 0 0 0 -0.00748435 -0.0244092 0.018015 0.0132186 0.0170533 0.00402813 -4.30838 6.67956 -1.00758 0.004 300 0 
104 1 1 -0.020429 -0.0190274 0.0110281 0 0 0 0.0194028 -0.0200115 -0.0189511 -0.00251315 0.0156319 -0.00470198 5.72314 3.84186 11.16 0.004 300 0 
20 1 1 -0.00799936 -0.016554 0.0111917 0 0 0 0.0227034 0.0038658 -0.00264362 -0.0101949 0.0189754 -0.0132437 3.06796 1.19665 4.27319 0.004 300 0 
45 1 1 0.000758182 -0.016677 0.0150763 0 0 0 0.0192526 0.0115625 0.011965 0.0156285 -0.00703278 -0.0788339 7.11337 -5.76963 6.08917 0.004 300 0 
159 1 1 0.00782044 -0.0172799 0.0114018 0 0 0 0.0222475 0.0767879 0.0376693 0.0266432 -0.00694511 -0.0149466 -3.00137 3.58608 -2.23278 0.004 300 0 
136 1 1 0.0346045 -0.01634 0.0108276 0 0 0 0.0252875 -0.0412224 0.0192193 0.0213049 0.0247047 0.00523218 -6.04455 -0.297532 4.58357 0.004 300 0 
177 1 1 -0.0442572 -0.0127361 0.0113975 0 0 0 -0.000904097 -0.010559 -0.0451817 0.000682854 -0.0175392 -0.0123361 -2.3577 3.01078 -1.15529 0.004 300 0 
4 1 1 -0.0282829 -0.0139404 0.0112075 0 0 0 0.0796892 -0.0336854 -0.0651747 -0.0162383 -0.041815 0.0568263 -6.02163 -13.7705 1.89362 0.004 300 0 
139 1 1 -0.0164383 -0.0121824 0.0112422 0 0 0 -0.00726694 0.00200214 -0.00010396 0.0123268 0.0149573 0.0104149 -0.365239 -3.22869 -7.09966 0.004 300 0 
211 1 1 -0.00217409 -0.0109518 0.0103918 0 0 0 0.0372741 -0.0280711 -0.0591141 0.0213401 0.00222455 -0.0223391 -2.50131 -4.03279 3.3636 0.004 300 0 
54 1 1 0.0152672 -0.0145126 0.0101933 0 0 0 0.0196907 0.0208776 -0.0887424 -0.0248328 0.0336976 -0.0156561 -5.02489 -8.64758 -6.12333 0.004 300 0 
84 1 1 0.0227181 -0.0116334 0.0109728 0 0 0 -0.0122374 0.0679006 0.0407631 0.0407045 -0.0343069 -0.0246424 8.3678 -5.31289 8.87809 0.004 300 0 
180 1 1 0.0437935 -0.0141717 0.011065 0 0 0 -0.00836233 -0.0270491 -0.0225419 0.0332051 0.052493 0.066971 1.51203 -0.554516 1.15883 0.004 300 0 
197 1 1 -0.0457426 -0.00493666 0.0113466 0 0 0 0.00295781 -0.00651264 -0.0331937 -0.00710778 -0.0217109 0.0253312 1.81241 -7.505 -1.47666 0.004 300 0 
103 1 1 0.0166199 -0.00652071 0.0111653 0 0 0 -0.00672009 0.0354667 -0.0197008 0.0305269 -0.0507506 -0.0073271 -0.58715 -6.58583 2.98082 0.004 300 0 
156 1 1 0.0304313 -0.00954013 0.0107815 0 0 0 0.0184193 -0.0377189 -0.00170987 0.0115155 0.030326 0.00418455 0.924466 1.04892 -7.26378 0.004 300 0 
130 1 1 -0.031073 -0.00421556 0.0108004 0 0 0 -0.00445939 -0.0532537 -0.0133786 -0.0207645 -0.0055797 -0.0036702 1.46288 -0.00671076 3.82685 0.004 300 0 
604 1 1 -0.022746 -0.000571309 0.0109841 0 0 0 0.00192399 -0.020229 -0.0156048 -0.0336684 -0.0308854 -0.0103282 3.2281 -0.908316 0.909318 0.004 300 0 
146 1 1 -0.0152221 -0.0031761 0.0105364 0 0 0 -0.0391977 -0.0118628 0.0359828 0.0246565 0.0265508 0.0207995 -6.5073 3.34878 -4.77718 0.004 300 0 
57 1 1 -0.00549507 -0.00383212 0.0122055 0 0 0 -0.00548454 0.0103784 -0.016717 0.0179927 0.0204127 0.0215103 4.18812 5.0982 0.0698914 0.004 300 0 
493 1 1 0.011709 -0.000351212 0.0104734 0 0 0 -0.00589749 0.036254 0.00867503 -0.0236474 -0.00350534 0.0374511 -4.39542 9.20221 0.923388 0.004 300 0 
31 1 1 0.0245844 -0.00383494 0.0107925 0 0 0 -0.0113223 -0.0353955 0.00371404 0.0151906 -0.0123367 -0.0109728 -1.72813 -14.1189 4.49432 0.004 300 0 
588 1 1 0.0322584 -0.00177108 0.0107457 0 0 0 -0.000430178 -0.0307724 -0.0384976 0.00910021 -0.0153702 0.0602024 1.11851 0.265508 1.66831 0.004 300 0 
63 1 1 0.0457059 -0.00373091 0.0119211 0 0 0 -0.00918302 -0.0221753 -0.108372 0.000283963 -0.0100236 0.0124044 -1.91561 1.79813 1.31838 0.004 300 0 
107 1 1 -0.00937627 -0.045035 0.0174626 0 0 0 0.00906571 0.000314936 0.0157826 0.0269411 -0.00869684 -0.0149126 -4.01536 -2.78282 0.983528 0.004 300 0 
222 1 1 -0.00155156 -0.0431671 0.0170495 0 0 0 -0.015813 0.0543672 0.00823711 -0.0340629 -0.0632606 -0.0176498 -3.13676 0.603973 -3.17182 0.004 300 0 
142 1 1 0.0058443 -0.0405208 0.0157855 0 0 0 0.00999857 -0.00520044 0.0145442 -0.0130435 0.0132874 -0.0393789 1.59217 5.29707 -2.03085 0.004 300 0 
172 1 1 0.0119221 -0.0445225 0.0189735 0 0 0 0.0142123 -0.00315089 -0.00722654 -0.00554673 0.0406896 0.028487 -5.22552 4.84005 -3.57884 0.004 300 0 
109 1 1 0.0196437 -0.0415401 0.0185558 0 0 0 0.000200303 0.0183474 -0.0264323 0.00639257 -0.00279435 -0.00322124 -1.93947 9.22432 -2.68162 0.004 300 0 
150 1 1 -0.0271363 -0.0371677 0.0164436 0 0 0 0.00373786 0.00461827 0.0304249 0.0117516 0.00277314 -0.0291193 1.81037 -5.59837 -0.89564 0.004 300 0 
38 1 1 -0.019491 -0.0372618 0.0187343 0 0 0 0.0137448 0.0195741 -0.00966649 0.0067526 -0.0166737 -0.0231224 -6.6581 5.69784 -0.431259 0.004 300 0 
199 1 1 -0.0116198 -0.0367389 0.0174216 0 0 0 0.0200368 0.024312 0.00644241 0.00656374 -0.00135092 0.0222387 -2.88426 10.1171 1.44052 0.004 300 0 
32 1 1 -0.00379951 -0.0357398 0.018776 0 0 0 0.00498225 0.0455005 -0.0326891 -0.0384665 -0.0471469 -0.00789615 4.82333 -6.68207 -0.422419 0.004 300 0 
93 1 1 0.013144 -0.0373467 0.0158345 0 0 0 0.0266103 -0.0382745 -0.0184675 -0.00813062 0.0156193 0.0351992 6.55731 3.45438 4.81035 0.004 300 0 
64 1 1 0.0277477 -0.0366743 0.0181918 0 0 0 0.0207904 -0.0293308 -0.0292477 -0.0238031 -0.011694 0.0236581 2.66885 -2.47757 4.77334 0.004 300 0 
174 1 1 -0.022851 -0.0300334 0.0164232 0 0 0 0.0741611 -0.0279055 -0.00322217 0.00119395 0.0258643 -0.0315165 4.27376 13.0378 -2.0602 0.004 300 0 
128 1 1 0.00371769 -0.0331897 0.0179821 0 0 0 0.0150008 0.0175988 0.0163179 -0.061732 -0.0066917 -0.0143937 10.2729 -8.07221 -13.9994 0.004 300 0 
137 1 1 0.0204349 -0.034209 0.0154761 0 0 0 0.00217664 0.0284581 0.00346669 0.0011543 0.0103421 0.0125232 -0.343278 3.17158 -3.64833 0.004 300 0 
154 1 1 0.0340373 -0.0310272 0.0194227 0 0 0 -0.0314942 -0.0516941 -0.0846232 0.0202362 0.062683 -0.0723608 -5.07298 8.05711 0.847255 0.004 300 0 
52 1 1 -0.0322454 -0.0253066 0.0160251 0 0 0 0.0207444 -0.0110781 0.00395393 -0.0403165 0.0136786 -0.0254644 6.70825 4.64051 8.87807 0.004 300 0 
80 1 1 -0.0100908 -0.0266482 0.0176536 0 0 0 0.0262903 -0.0114283 0.000901253 -0.016303 0.0216377 -0.018388 -5.74707 -5.77987 -2.48709 0.004 300 0 
125 1 1 -0.00227512 -0.0279583 0.0184885 0 0 0 0.0124 0.0465908 -0.00800309 -0.0215885 0.0181908 -0.0494355 -3.06529 -10.7195 8.05999 0.004 300 0 
196 1 1 0.0049445 -0.0246651 0.0186152 0 0 0 0.0656798 -0.0183206 0.0614015 0.0136958 0.010543 0.00970406 7.23932 5.68914 -4.96179 0.004 300 0 
88 1 1 0.0111258 -0.0297786 0.0181018 0 0 0 0.0405895 6.34967e-05 0.0241894 4.68955e-05 1.55774e-06 -0.0209729 0.122419 -14.8635 -16.0169 0.004 300 0 
72 1 1 0.0183661 -0.0266295 0.0166587 0 0 0 0.0028291 0.0232069 0.016007 -0.060389 -0.0543436 -0.168929 -7.88963 5.0241 2.15012 0.004 300 0 
34 1 1 0.0269809 -0.0289141 0.0164307 0 0 0 -0.0451346 0.0063996 -0.0239863 -0.019459 -0.0435991 0.043728 -4.89007 -0.736423 5.27756 0.004 300 0 
218 1 1 -0.0395872 -0.0234501 0.0185485 0 0 0 0.0244492 -0.0355157 0.0342482 0.00292642 -0.0092247 -0.0173564 11.3091 -0.245614 -1.70644 0.004 300 0 
70 1 1 -0.0251296 -0.0225934 0.0183015 0 0 0 0.0136131 -0.0110582 -0.0337959 0.0389618 0.0507443 -0.0209543 7.27524 1.02108 -0.56882 0.004 300 0 
132 1 1 -0.0175247 -0.0240613 0.0164791 0 0 0 0.0295249 -0.00205653 -0.0129201 0.0137873 -0.0035149 0.0422328 6.90106 -1.72723 0.541323 0.004 300 0 
86 1 1 -0.00512516 -0.020542 0.0187973 0 0 0 -0.00552677 0.0370932 0.0123941 -0.00372021 0.0210568 -0.00134836 -3.72731 1.50565 1.7656 0.004 300 0 
129 1 1 0.0122715 -0.0216551 0.0179231 0 0 0 -0.0011032 0.0198709 -0.0137037 0.0751508 0.0260649 0.034911 -2.62434 0.114261 -1.41909 0.004 300 0 
362 1 1 0.0243303 -0.0214925 0.0177576 0 0 0 0.00532337 0.0165047 -0.0653951 0.00944568 -0.146303 0.0620161 7.79781 -12.0472 -8.47094 0.004 300 0 
49 1 1 0.0388048 -0.0247771 0.0181825 0 0 0 -0.0089762 -0.0133774 0.015631 0.00724524 -0.0435022 0.00165662 5.66253 -3.69054 -1.79156 0.004 300 0 
173 1 1 -0.0430435 -0.0162601 0.018428 0 0 0 0.0224607 -0.0381352 -0.0325165 0.00933653 -0.00997843 -0.0042113 6.8863 2.73409 0.749722 0.004 300 0 
50 1 1 -0.0292963 -0.0158677 0.0191848 0 0 0 -0.00486363 -0.0254213 0.00162628 0.000370453 -0.031335 -0.0571078 1.29738 -3.54482 -0.717429 0.004 300 0 
202 1 1 -0.0136223 -0.0171161 0.0168234 0 0 0 0.0165009 0.00868639 -0.0111154 0.0125405 -0.00713488 0.0251087 -6.71983 0.519101 2.29713 0.004 300 0 
28 1 1 0.00750525 -0.0153938 0.0191228 0 0 0 0.0133854 0.0233334 0.0315062 -0.00580881 0.0225452 -0.0534398 11.0071 2.31135 1.67872 0.004 300 0 
1 1 1 0.0424809 -0.0176917 0.0180698 0 0 0 -0.00308663 0.0186371 -0.0089283 0.00347588 -0.0497311 -0.00244084 2.14158 -3.18597 3.28523 0.004 300 0 
43 1 1 -0.035973 -0.0144898 0.0150992 0 0 0 0.0224384 0.00331604 -0.0123211 -0.0463431 -0.0376046 -0.00349078 1.97236 -0.391504 -1.66559 0.004 300 0 
168 1 1 -0.02232 -0.0132282 0.0164495 0 0 0 0.0121972 0.0364487 0.0412093 -0.04496 0.0233915 -0.00881633 5.69416 5.81821 -2.54953 0.004 300 0 
121 1 1 -0.00561339 -0.012668 0.0177286 0 0 0 0.0035766 0.0189572 -0.0162849 0.0171591 -0.0212108 -0.0261595 1.4885 0.607097 0.968079 0.004 300 0 
42 1 1 0.0194613 -0.0152465 0.0173859 0 0 0 -0.0192188 -0.0624916 -0.0206423 -0.0379406 0.0786464 -0.028512 3.26823 5.59789 1.84709 0.004 300 0 
82 1 1 0.0288351 -0.0151571 0.0162021 0 0 0 0.0415652 -0.00657728 0.0110083 0.076714 0.0412024 -0.0332404 5.2502 1.65315 0.229081 0.004 300 0 
60 1 1 0.0370891 -0.0115263 0.0166827 0 0 0 -0.00232559 -0.0172748 0.0172471 0.0105433 0.0209207 -0.00904519 2.96543 8.83085 -5.78572 0.004 300 0 
135 1 1 -0.045047 -0.0084425 0.0184942 0 0 0 0.0219214 -0.0286546 -0.025328 4.46042e-05 -0.000512026 -0.0200338 2.50929 12.1511 -4.57161 0.004 300 0 
190 1 1 -0.0288641 -0.00810686 0.0173747 0 0 0 0.0280202 -0.0114753 -0.00820423 -0.0186168 -0.0446584 -0.0170048 3.23021 -5.58092 10.426 0.004 300 0 
7 1 1 -0.0198271 -0.0055865 0.0166075 0 0 0 -0.0116543 0.0386342 0.0541141 0.0400706 0.000631812 -0.083039 -4.09878 -2.76491 16.1544 0.004 300 0 
145 1 1 -0.011616 -0.00781482 0.0158606 0 0 0 -0.0157028 0.00139221 0.0342959 0.0239002 -0.000836536 0.0237328 0.302825 -2.74244 10.0949 0.004 300 0 
111 1 1 -0.00493012 -0.00514491 0.020256 0 0 0 -0.0779862 0.012785 -0.0210499 -0.0154003 0.0151754 0.00711778 4.91807 -2.26656 5.23787 0.004 300 0 
186 1 1 0.00141001 -0.00898526 0.0172558 0 0 0 -0.0144832 0.0556564 -0.0303354 0.0155948 -0.00538158 -0.0115067 -0.398505 4.96925 -1.0141 0.004 300 0 
56 1 1 0.013329 -0.0101702 0.0174488 0 0 0 0.0418208 0.00628451 0.00254265 -0.0412669 0.0155194 -0.00645405 -5.7025 -4.16702 -2.79672 0.004 300 0 
191 1 1 0.0214004 -0.00662919 0.0175175 0 0 0 -0.0401088 -0.0568014 -0.0016543 0.0310561 -0.0342138 0.0219381 9.08342 7.37675 -1.86079 0.004 300 0 
208 1 1 0.0310781 -0.00555504 0.0176564 0 0 0 -0.0610422 0.000931016 -0.0130148 0.0231458 -0.0264026 0.00382088 -11.0468 -3.4864 6.10859 0.004 300 0 
92 1 1 0.0450278 -0.00954011 0.0173553 0 0 0 -0.00715979 -0.0236883 8.99967e-05 -0.00951607 0.0444339 -0.00685198 -1.23232 2.93549 -0.85367 0.004 300 0 
733 1 1 0.0200351 -0.00128377 0.0493774 0 0 0 -0.0171529 -0.163481 0.00949285 -0.0215629 -0.0554432 -0.121914 22.4997 26.4989 8.4925 0.004 300 0 
87 1 1 -0.0391151 -0.00303169 0.0160654 0 0 0 -0.0160292 -0.0532299 -0.0612067 -0.0487444 0.0151013 0.00114323 -5.81632 6.01271 -5.17523 0.004 300 0 
462 1 1 -0.0263211 -0.000572233 0.0181131 0 0 0 0.0212533 0.0014358 -0.0137647 -0.00793066 0.00531199 0.00145898 -4.7483 0.00319028 -6.64132 0.004 300 0 
450 1 1 -0.011575 -0.000737013 0.0194951 0 0 0 -0.112212 -0.0162191 0.104058 0.0198845 0.0201705 0.0128955 10.6746 -10.3193 0.754458 0.004 300 0 
622 1 1 0.000695839 -0.0010509 0.0163797 0 0 0 0.00317167 -0.0490379 0.0150676 0.00957865 0.0535553 0.0129418 4.38746 -7.9328 -3.51744 0.004 300 0 
106 1 1 0.00786707 -0.00450949 0.0160458 0 0 0 0.0365225 -0.00298849 -0.00419542 0.0075831 -0.0230453 -0.0251354 10.2318 3.22194 2.57766 0.004 300 0 
133 1 1 0.0387602 -0.00355645 0.0164125 0 0 0 -0.0333126 -0.0209889 -0.0116885 0.00844565 0.0176609 0.0176784 -8.2693 -1.63122 -2.55534 0.004 300 0 
127 1 1 -0.00313932 -0.045936 0.024352 0 0 0 0.0773418 -0.0105137 0.0139323 0.0365856 -0.00545747 -0.00400252 3.72318 0.00143935 -4.78378 0.004 300 0 
126 1 1 -0.0155189 -0.0433115 0.0221899 0 0 0 0.00592072 0.00395756 0.00785885 0.0072798 -0.00821884 -0.0108032 5.33243 2.22143 -2.61235 0.004 300 0 
371 1 1 -0.00828481 -0.0399094 0.0239294 0 0 0 0.052368 -0.0206665 -0.0181427 -0.0286804 -0.0172075 0.000616767 -11.6524 -2.24241 7.2979 0.004 300 0 
143 1 1 0.00371791 -0.041925 0.0233027 0 0 0 0.0301368 -0.077247 0.00752591 -0.00447692 -0.0216091 0.0468539 -3.23587 4.21159 -3.82293 0.004 300 0 
110 1 1 -0.0284309 -0.0362264 0.0242479 0 0 0 0.0105664 0.00378977 0.0177945 -0.0338519 -0.0115137 -0.0454969 -0.55736 -0.97901 0.1907 0.004 300 0 
114 1 1 0.0111282 -0.0380178 0.0235028 0 0 0 0.0381318 -0.00132525 0.000237099 0.00151572 0.0152476 0.013344 5.99734 -0.368616 2.70292 0.004 300 0 
35 1 1 0.0244492 -0.0389115 0.0250878 0 0 0 0.0794077 0.0573692 0.0126018 -0.00533681 -0.00720333 0.0118855 -1.96501 3.55211 0.36766 0.004 300 0 
22 1 1 -0.0337489 -0.0313142 0.0209832 0 0 0 0.0297672 -0.0211988 -0.00849165 -0.0302002 0.0206137 0.00505902 -4.63812 -8.24791 -4.11335 0.004 300 0 
85 1 1 -0.0166254 -0.0303151 0.021395 0 0 0 0.0209942 0.0692352 -0.041285 0.0266573 0.0151919 0.0103406 -3.50417 -12.7355 -2.65009 0.004 300 0 
390 1 1 -0.00910658 -0.0320269 0.0234315 0 0 0 0.017064 -0.000328643 0.00957739 0.00735347 0.0418453 0.0191177 5.23017 5.97992 -2.5063 0.004 300 0 
216 1 1 0.00652504 -0.031358 0.0251583 0 0 0 -0.00456414 0.0717895 0.0471583 -0.0403191 -0.158071 0.0619955 -16.2261 -2.75006 -0.186376 0.004 300 0 
149 1 1 0.0144871 -0.0310089 0.0253423 0 0 0 0.0606762 -0.010118 0.0325657 0.0174565 0.012687 -0.0203735 -4.52901 3.68735 -5.36575 0.004 300 0 
166 1 1 0.0293015 -0.0325539 0.0255937 0 0 0 0.0525917 0.0723944 -0.00494112 -0.0554521 -0.00376363 0.0257985 -2.01532 -2.11982 -7.12252 0.004 300 0 
134 1 1 -0.0265669 -0.0285722 0.0233128 0 0 0 0.00978998 -0.0183081 -0.0604713 0.00893891 -0.0224264 -0.0347214 -6.90663 0.932957 -3.28023 0.004 300 0 
36 1 1 -0.00639224 -0.0246885 0.0255301 0 0 0 0.0148478 -0.013006 -0.000727902 -0.0632967 -0.0217212 -0.0144153 0.693568 5.07382 -4.70648 0.004 300 0 
271 1 1 0.0221239 -0.0308927 0.0225204 0 0 0 0.0231917 -0.0398148 0.0253606 -0.00375657 0.0217476 -0.000447096 10.0135 7.50361 -7.00598 0.004 300 0 
51 1 1 -0.0314735 -0.0223133 0.0233374 0 0 0 0.0079701 -0.00865614 0.0203513 -0.00584348 -0.0437319 -0.0260011 -6.41899 -0.0614818 -5.15372 0.004 300 0 
204 1 1 -0.0138666 -0.0227594 0.02348 0 0 0 0.0203109 -0.00620441 -0.0210158 -0.0363801 -0.0621393 0.0195028 1.00526 -1.76113 1.5689 0.004 300 0 
25 1 1 0.00989975 -0.024221 0.0252217 0 0 0 0.0570393 0.0719337 -0.00792154 0.0938786 0.13252 -0.0205999 2.04229 -13.4496 -8.94989 0.004 300 0 