ITEM: TIMESTEP
3200
ITEM: NUMBER OF ATOMS
890
ITEM: BOX BOUNDS mm mm mm
-0.05 0.05
-0.05 0.05
0 0.15
ITEM: ATOMS id type type x y z ix iy iz vx vy vz fx fy fz omegax omegay omegaz radius f_Temp[0] f_heatFlux[0] 
59 1 1 -0.00509149 -0.0457968 0.00395625 0 0 0 0.344258 0.0505297 0.02065 -0.00527193 0.0506594 -0.0117635 -3.0829 12.5354 -6.43624 0.004 300 0 
170 1 1 -0.0193149 -0.0418971 0.00413098 0 0 0 0.0700636 0.0607898 0.00839053 -0.0444224 -0.0280129 -0.0275796 -0.504611 -7.50474 -10.7735 0.004 300 0 
15 1 1 -0.0114719 -0.0410598 0.0038803 0 0 0 0.132381 -0.054437 -0.0405302 0.00105441 -0.0119857 -0.211481 2.0105 5.74608 16.1532 0.004 300 0 
116 1 1 0.00212074 -0.0421468 0.00374826 0 0 0 -0.0909388 -0.0839126 0.00765654 -0.0946769 0.00610133 0.632718 -4.02343 -9.66419 0.215134 0.004 300 0 
158 1 1 0.014181 -0.0434979 0.00422803 0 0 0 -0.0618051 0.121977 -0.05798 -0.0404494 -0.0171569 -0.0189832 6.90033 16.6035 -16.6024 0.004 300 0 
98 1 1 0.0216572 -0.0407457 0.00395459 0 0 0 -0.0646966 -0.031782 -0.00828913 0.143339 0.0534343 0.0494713 9.72929 -13.0771 16.21 0.004 300 0 
169 1 1 -0.0267472 -0.0375171 0.00385793 0 0 0 -0.0711649 0.00398909 0.146496 0.0410687 -0.00376316 0.037267 -9.50324 -3.78586 -15.6421 0.004 300 0 
23 1 1 0.0158857 -0.0354668 0.00387957 0 0 0 -0.00824906 0.0446542 0.0835838 -0.184547 -0.0208777 -0.213031 -3.59403 0.686518 -6.05857 0.004 300 0 
118 1 1 -0.0331135 -0.0320451 0.00392462 0 0 0 0.0468169 0.0523412 0.051641 -0.0508538 -0.00440269 0.0147084 -0.231442 -0.701524 -1.38781 0.004 300 0 
30 1 1 -0.0191879 -0.0340524 0.00382226 0 0 0 0.0176751 0.0994804 -0.0967886 -0.0375623 -0.234582 0.114774 -4.07854 13.6315 3.89847 0.004 300 0 
215 1 1 -0.00473596 -0.0305837 0.00386558 0 0 0 0.0275384 0.179306 0.0109167 0.0191041 -0.0783678 -0.00465872 -11.1192 -3.2501 -2.82255 0.004 300 0 
74 1 1 0.0052893 -0.034107 0.00389555 0 0 0 0.00203157 -0.206206 -0.157017 0.228945 0.382962 -0.268469 -14.0601 -4.75049 -20.2294 0.004 300 0 
12 1 1 -0.025323 -0.0247445 0.00397961 0 0 0 0.0335286 0.138957 0.00659901 0.0751833 -0.121977 -0.00367391 1.89805 2.26199 -20.1924 0.004 300 0 
188 1 1 -0.0125972 -0.0297786 0.0040171 0 0 0 0.101198 0.176556 -0.0647773 0.0257998 0.172384 -0.0130531 -5.08773 -3.60817 8.16163 0.004 300 0 
77 1 1 8.73422e-05 -0.0242443 0.00396991 0 0 0 -0.0263938 0.214792 0.0256515 -0.0436243 0.00895132 -0.00971104 -9.01978 6.42187 -3.6917 0.004 300 0 
24 1 1 0.0125491 -0.0283089 0.00381873 0 0 0 0.048992 0.0834053 0.0102022 0.0883871 0.0426214 0.0845446 -3.60626 -7.61749 -20.7347 0.004 300 0 
113 1 1 0.0204513 -0.028975 0.00394959 0 0 0 -0.0531717 -0.0303796 -0.0163132 0.108516 0.222794 0.00620528 8.8674 -3.9032 11.1336 0.004 300 0 
161 1 1 0.0307305 -0.0307757 0.00398709 0 0 0 0.213459 -0.112705 -0.0761826 -0.0722816 0.168932 -0.3952 5.14907 8.17649 -0.664272 0.004 300 0 
183 1 1 0.0386186 -0.0251433 0.0039549 0 0 0 0.136673 0.325825 -0.0318929 0.0440938 0.0372752 -0.0501754 3.00282 16.2587 -4.68118 0.004 300 0 
8 1 1 -0.0336638 -0.0241247 0.00384408 0 0 0 0.123974 0.0667802 0.107128 0.0661156 -0.0465432 0.0404828 -3.34737 -2.9237 -8.70804 0.004 300 0 
148 1 1 -0.0164677 -0.0222353 0.00384817 0 0 0 0.0708143 0.121574 -0.0513633 0.0945254 -0.178572 -0.115272 -15.0482 -9.82088 5.11849 0.004 300 0 
195 1 1 -0.00784447 -0.0231208 0.00398723 0 0 0 -0.0902669 0.125802 -0.00652243 0.000306648 -0.000650998 -0.00664702 1.05308 -7.26849 8.57936 0.004 300 0 
95 1 1 0.0168487 -0.0216478 0.00401056 0 0 0 0.0794816 0.017378 0.00280872 0.00630501 -0.0223204 -0.326412 5.54369 -6.56851 3.81493 0.004 300 0 
76 1 1 0.0255981 -0.0228678 0.00403575 0 0 0 -0.0129393 -0.100154 0.00276469 -0.0377575 -0.0715181 -0.126951 13.1682 8.8187 -10.161 0.004 300 0 
53 1 1 -0.028983 -0.0177138 0.00403419 0 0 0 0.107123 0.0542264 0.0985983 0.0543875 -0.199353 -0.183311 -13.501 -21.5873 14.217 0.004 300 0 
213 1 1 -0.0120232 -0.0154914 0.00402694 0 0 0 -0.0885902 -0.214555 0.0575264 0.170114 -0.27962 -0.0249878 12.2643 -1.6575 -13.2771 0.004 300 0 
144 1 1 -0.00405222 -0.0150704 0.0039231 0 0 0 -0.0656985 0.00728955 0.0371725 0.00966679 0.00651976 0.136782 -12.8514 -9.05941 9.02208 0.004 300 0 
5 1 1 0.0102103 -0.0154983 0.00395105 0 0 0 -0.115887 0.112216 -0.0802947 -0.0344784 0.144337 -0.0145436 -13.654 -9.3708 3.26875 0.004 300 0 
96 1 1 0.0218694 -0.0156145 0.00409387 0 0 0 0.0239304 0.072898 0.0271441 -0.0236809 0.125108 -0.0293964 -14.3443 8.71801 9.21395 0.004 300 0 
100 1 1 0.0345431 -0.0179578 0.00400849 0 0 0 -0.00991017 -0.130339 0.00571095 -0.166031 -0.0442612 -0.0684871 0.189159 -4.92923 13.7836 0.004 300 0 
167 1 1 0.0424338 -0.0180679 0.00403953 0 0 0 0.0240559 0.126451 0.00721235 -0.126205 0.0640337 -0.076495 -24.2259 12.2297 -1.83636 0.004 300 0 
65 1 1 -0.0440426 -0.0135677 0.00380518 0 0 0 0.0138401 -0.00684459 0.083133 -0.199019 -0.0880139 0.0612874 -0.625413 12.0435 -3.51387 0.004 300 0 
102 1 1 -0.0362955 -0.0146903 0.00394925 0 0 0 -0.0285482 0.0373512 -0.0303283 0.0701931 0.0772874 -0.200584 2.99695 -1.51042 4.52025 0.004 300 0 
124 1 1 -0.0301434 -0.00991917 0.00382812 0 0 0 0.040087 0.0135077 -0.106179 0.165202 0.602862 -0.0372348 -9.57968 -6.50244 13.2966 0.004 300 0 
220 1 1 -0.0222625 -0.0134101 0.00393674 0 0 0 -0.155489 0.108171 0.0120193 -0.290216 -0.681342 -0.305267 -18.8547 -8.15311 0.233865 0.004 300 0 
26 1 1 0.00342132 -0.0101336 0.0038357 0 0 0 -0.126853 0.0990147 0.0337942 -0.143006 0.086067 0.176521 -18.2647 -22.7727 0.924223 0.004 300 0 
194 1 1 0.0289929 -0.0122543 0.00394653 0 0 0 0.016321 -0.0960153 -0.0836488 0.100937 -0.131918 -0.638163 -6.44233 -0.875728 14.9052 0.004 300 0 
37 1 1 0.0369532 -0.010403 0.00374064 0 0 0 0.0758861 -0.186125 0.00260652 0.0140106 0.0595025 0.902684 1.25226 18.6115 11.3689 0.004 300 0 
636 1 1 -0.0456446 -0.00583928 0.00378522 0 0 0 -0.0528538 -0.00602084 0.0463973 -0.0901555 -0.0321394 -0.406233 -14.8819 -0.0342735 -8.01171 0.004 300 0 
39 1 1 -0.0160361 -0.00873597 0.00377662 0 0 0 0.087271 -0.182063 0.046943 0.209372 0.226553 0.293827 10.9529 -0.535077 -13.4503 0.004 300 0 
171 1 1 -0.00282988 -0.00516997 0.0040126 0 0 0 -0.088201 0.0914773 0.029264 0.201344 -0.105226 -0.0324615 4.80314 0.34237 7.94667 0.004 300 0 
200 1 1 0.0159207 -0.0100544 0.00418944 0 0 0 0.0864119 0.143276 -0.0250989 0.0889685 0.314727 -0.218148 26.7776 7.57878 -18.5671 0.004 300 0 
21 1 1 0.0232094 -0.00672343 0.00388744 0 0 0 -0.123959 -0.121004 -0.0155282 0.0660779 0.115262 -0.195702 1.38075 4.52068 2.67773 0.004 300 0 
219 1 1 0.0449526 -0.0097439 0.00393042 0 0 0 -0.0402967 -0.0905515 0.0991776 0.0117174 0.0587939 -0.00275593 13.9317 -5.51788 3.50178 0.004 300 0 
140 1 1 -0.037544 -0.00485489 0.00389155 0 0 0 0.00426296 0.0124394 0.0094312 -0.106587 -0.00347472 -0.0139393 5.73415 -4.22336 -2.60933 0.004 300 0 
207 1 1 -0.0205219 -0.000808735 0.00367775 0 0 0 -0.0163986 -0.16076 -0.0360511 0.299796 -0.195794 0.386215 -10.5588 -12.0772 2.21054 0.004 300 0 
69 1 1 -0.0102142 -0.00236489 0.00373159 0 0 0 0.043493 -0.0394795 0.0425297 -0.192149 0.0300124 0.299452 -0.758499 -4.42508 12.2154 0.004 300 0 
221 1 1 0.0089655 -0.00322303 0.00396331 0 0 0 -0.056917 0.0794277 -0.0705724 -0.16764 -0.0420377 0.0456007 2.50888 -5.15647 7.65208 0.004 300 0 
457 1 1 0.0167673 -0.00202538 0.00410817 0 0 0 -0.0326436 0.000427192 0.0562325 0.131216 0.0256384 -0.0257629 8.96684 3.59635 -6.77999 0.004 300 0 
17 1 1 0.0308562 -0.00453417 0.00391164 0 0 0 -0.104031 -0.0525407 -0.0536013 0.0262016 -0.0409997 0.00646824 6.74382 4.01827 9.62237 0.004 300 0 
155 1 1 0.0381643 -0.00142478 0.00397379 0 0 0 -0.0726197 0.000652728 -0.0373342 -0.089086 -0.00339866 -0.0367917 0.458119 2.5459 -11.8588 0.004 300 0 
665 1 1 0.0460674 -0.00172281 0.00389409 0 0 0 -0.0204137 0.0325518 -0.15157 -0.0805108 0.204962 -0.0204138 -0.767973 -3.84121 4.61694 0.004 300 0 
223 1 1 0.00746868 -0.0454388 0.00852462 0 0 0 -0.0317097 -0.00527932 0.0331248 0.201987 -0.0164204 0.0120437 -9.34184 -8.90173 4.40452 0.004 300 0 
152 1 1 -0.00436827 -0.03819 0.00614212 0 0 0 -0.00557787 0.119899 -0.00485176 0.0076097 0.0260037 0.025256 -17.8517 2.56476 16.4293 0.004 300 0 
120 1 1 0.0105183 -0.0380511 0.00899384 0 0 0 -0.134261 -0.00241972 0.186524 -0.324174 0.172543 -0.0102283 4.1583 2.45217 4.85248 0.004 300 0 
9 1 1 -0.0267434 -0.0311446 0.0085042 0 0 0 0.0353407 0.0961072 0.0644729 -0.0363068 0.134715 -0.0195698 -5.03609 11.3783 2.64707 0.004 300 0 
47 1 1 0.000675374 -0.0300799 0.00955829 0 0 0 -0.147101 0.141561 0.0593676 -0.32284 0.188054 0.114468 18.5787 11.3179 -3.89616 0.004 300 0 
198 1 1 0.0245246 -0.0344817 0.00787485 0 0 0 -0.0888106 -0.0340421 0.0900524 0.126016 0.0516401 -0.0072251 -15.8054 -15.382 -24.7206 0.004 300 0 
101 1 1 -0.019508 -0.0278619 0.00854705 0 0 0 0.0444889 0.0217196 -0.154525 -0.158828 -0.116971 -0.577186 -3.55486 -4.20334 16.3685 0.004 300 0 
162 1 1 -0.0410256 -0.0208052 0.00524578 0 0 0 0.0128655 -0.0724019 -0.0317947 -0.221541 -0.2853 0.0510135 -2.60252 -5.70211 13.4456 0.004 300 0 
179 1 1 0.0075749 -0.0225998 0.00607249 0 0 0 0.0164745 0.0360713 -0.0540749 -0.0455785 -0.229987 -0.000714734 -8.33466 -0.870092 3.63529 0.004 300 0 
75 1 1 0.0321734 -0.0241624 0.00836284 0 0 0 -0.0125583 -0.0235877 0.0615364 0.335309 -0.2109 -0.100183 -7.50368 -12.8127 11.8487 0.004 300 0 
104 1 1 -0.0202283 -0.0185109 0.00959811 0 0 0 -0.00787145 0.108959 -0.0854142 -0.101014 0.227871 -0.166993 34.4903 -7.52752 -4.7432 0.004 300 0 
10 1 1 0.00358707 -0.0163319 0.00875223 0 0 0 -0.0499001 0.00972133 -0.140795 0.0953079 -0.0544995 -0.219846 23.037 7.72842 10.3215 0.004 300 0 
54 1 1 0.0158459 -0.0158199 0.00954537 0 0 0 0.0120623 0.0362571 -0.179346 0.0549358 -0.21116 0.226113 16.51 3.12924 -4.47287 0.004 300 0 
11 1 1 0.0278624 -0.0177125 0.00960479 0 0 0 0.108596 -0.109079 -0.0327878 -0.251676 0.26339 -0.0101391 -10.8955 -2.35772 -11.8075 0.004 300 0 
62 1 1 -0.0239293 -0.00672889 0.0076262 0 0 0 -0.0170188 -0.0662213 -0.0631415 -0.179044 -0.0358252 0.208241 -4.25804 -5.39915 4.78311 0.004 300 0 
19 1 1 -0.00917689 -0.00873737 0.0082702 0 0 0 -0.126674 -0.0147549 0.0116067 0.09097 -0.0900135 -0.0808106 -1.22275 11.0361 -1.34862 0.004 300 0 
187 1 1 0.00921947 -0.00950435 0.00911947 0 0 0 -0.120662 0.212357 -0.014071 0.160406 -0.0270897 0.142123 25.902 27.7359 11.456 0.004 300 0 
119 1 1 -0.0302374 -0.00227768 0.00566913 0 0 0 -0.132418 0.0848875 -0.0899229 0.310459 -0.102132 0.194418 -10.1123 6.76113 -10.0622 0.004 300 0 
146 1 1 -0.0156386 -0.00336445 0.00935525 0 0 0 0.0267177 -0.0781867 0.0188525 0.0277423 0.450691 -0.144999 -19.2302 -9.67689 23.2851 0.004 300 0 
83 1 1 -0.000241086 -0.0460632 0.0102732 0 0 0 0.173221 -0.0931488 0.0619508 -0.156277 0.157676 0.0770176 -16.8809 -0.336883 7.68405 0.004 300 0 
185 1 1 -0.00971633 -0.0449013 0.0104903 0 0 0 0.0395013 -0.111839 -0.03566 0.0955126 -0.166445 0.284283 -9.2208 -1.94351 1.47262 0.004 300 0 
217 1 1 0.0139868 -0.0439906 0.0127886 0 0 0 0.190965 -0.0159312 -0.186729 0.0315985 0.297131 0.219048 -9.79152 11.472 4.74886 0.004 300 0 
117 1 1 0.0213223 -0.0404582 0.0119743 0 0 0 -0.0297542 -0.0282288 -0.0213074 -0.0639768 -0.111829 0.0648366 2.22124 29.7959 12.6933 0.004 300 0 
58 1 1 -0.0221733 -0.0374078 0.0102856 0 0 0 0.262532 0.114193 0.0287432 0.0536777 -0.0791754 0.111089 4.56335 18.9441 -32.496 0.004 300 0 
89 1 1 -0.0111581 -0.0357797 0.00968617 0 0 0 0.0298326 -0.0418762 -0.0918864 -0.0100885 -0.284995 0.0404743 -22.9152 9.37993 6.29869 0.004 300 0 
151 1 1 -0.00416152 -0.0351547 0.0136012 0 0 0 0.0973359 0.0752186 0.0384728 0.131852 0.0599431 -0.145238 23.411 -26.6445 -0.356666 0.004 300 0 
2 1 1 0.00263795 -0.0377252 0.0102125 0 0 0 -0.226285 0.253348 0.0281583 -0.179088 -0.412516 0.824009 -24.0852 -27.7175 -4.62487 0.004 300 0 
13 1 1 -0.033038 -0.0315197 0.0139999 0 0 0 -0.0334071 -0.0248813 -0.0459869 0.207769 -0.243067 0.156921 -12.8459 19.0601 -9.78206 0.004 300 0 
6 1 1 -0.0163375 -0.0322254 0.0144507 0 0 0 0.157639 0.16567 -0.0873919 0.162244 0.0331245 -0.0182437 22.4688 10.5303 -7.21367 0.004 300 0 
153 1 1 0.00845658 -0.0303292 0.0101328 0 0 0 -0.135526 0.0133407 -0.108039 0.0252563 -0.122055 0.208792 3.95127 15.9255 -6.15741 0.004 300 0 
41 1 1 0.0173898 -0.0328137 0.0111449 0 0 0 0.116427 0.0834834 -0.0841323 0.758623 -0.337035 -0.545798 -16.5853 -15.6924 -5.59492 0.004 300 0 
163 1 1 0.0316319 -0.0334932 0.0112523 0 0 0 -0.0138989 0.0254755 0.117356 0.0813056 -0.155843 0.24747 -10.9059 -5.07847 3.26185 0.004 300 0 
214 1 1 -0.0377429 -0.0266001 0.0101086 0 0 0 -0.0756621 0.0160878 0.0050828 0.250263 0.21323 -0.0939174 13.3372 10.5814 -3.62738 0.004 300 0 
193 1 1 -0.00792791 -0.0287707 0.0108527 0 0 0 0.0104437 0.0278848 0.165158 -0.0756265 0.470117 -0.13596 41.8592 -15.2156 7.20337 0.004 300 0 
48 1 1 0.0257902 -0.0274599 0.0115115 0 0 0 -0.0659637 -0.0438189 -0.125229 -0.280265 -0.147088 -0.0872485 -2.38015 -9.93049 -16.0176 0.004 300 0 
210 1 1 0.036654 -0.027963 0.0138302 0 0 0 0.0689352 -0.0185125 0.113519 -0.11666 0.291872 0.00369491 -7.36592 1.60172 -12.8664 0.004 300 0 
160 1 1 -0.0411869 -0.0208459 0.0143114 0 0 0 0.0418495 -0.124032 0.0686832 0.038101 -0.0146624 -0.0124063 -7.36948 -5.70379 10.8636 0.004 300 0 
108 1 1 -0.027382 -0.0220617 0.0112774 0 0 0 0.0417788 0.167183 -0.305507 0.240135 -0.0650298 -0.428132 -0.29561 -14.4412 2.46003 0.004 300 0 
33 1 1 -0.0125142 -0.0223344 0.0106683 0 0 0 -0.00873088 0.0275507 -0.0298142 0.10333 0.00923281 -0.0191514 0.293631 2.73376 -10.7708 0.004 300 0 
40 1 1 -0.00279442 -0.0218951 0.0112257 0 0 0 -0.200052 -0.157505 0.0784683 0.0363227 -0.0402428 -0.0252339 -5.4046 -2.82223 4.46543 0.004 300 0 
55 1 1 0.00474152 -0.0232065 0.0134784 0 0 0 -0.0430658 -0.0355231 -0.0608647 -0.0157165 -0.00290443 0.0316727 15.1983 0.158173 0.275111 0.004 300 0 
91 1 1 0.0138175 -0.024218 0.0107819 0 0 0 0.0796185 0.000989316 -0.142167 -0.15574 -0.138502 0.309078 19.3874 -19.5107 1.13661 0.004 300 0 
112 1 1 0.0210718 -0.0210966 0.012784 0 0 0 0.0268783 0.00344702 -0.294736 0.355547 0.271529 -1.05058 23.6654 -4.11806 -20.1282 0.004 300 0 
131 1 1 0.0405993 -0.0211399 0.0120113 0 0 0 -0.198489 0.0639642 -0.133156 0 0 -0.0210391 6.61558 4.0248 -24.8916 0.004 300 0 
46 1 1 -0.0346413 -0.0193441 0.0100473 0 0 0 0.0370432 0.0841559 0.0774377 -0.0969923 -0.095511 -0.0825749 4.48606 -18.4721 9.89114 0.004 300 0 
20 1 1 -0.00799044 -0.015891 0.0115049 0 0 0 -0.0802341 0.0400625 -0.0657654 0.145289 0.0894321 -0.0285714 -2.90995 19.0932 0.843871 0.004 300 0 
159 1 1 0.00924556 -0.0155493 0.0143291 0 0 0 -0.0780993 -0.00478616 -0.171588 -0.0715591 -0.106582 -0.134417 -1.44415 3.6272 4.35665 0.004 300 0 
177 1 1 -0.0438866 -0.0137876 0.0116142 0 0 0 0.151293 -0.193659 -0.0724547 -0.10514 -0.177265 0.322685 -3.37661 5.05302 4.21602 0.004 300 0 
4 1 1 -0.0288713 -0.0133626 0.0106858 0 0 0 -0.152779 -0.0581713 -0.251093 -0.102165 -0.0182088 0.216298 -4.98986 5.90127 2.24555 0.004 300 0 
139 1 1 -0.0154275 -0.0124334 0.0115156 0 0 0 -0.0634148 -0.0788044 0.111423 0.116617 -0.183367 -0.125094 4.21042 3.14342 -10.2832 0.004 300 0 
211 1 1 -0.00159131 -0.0104577 0.0100066 0 0 0 -0.0918576 0.0392317 0.0822821 -0.033263 -0.033987 -0.0108409 -0.910509 2.25738 -7.97729 0.004 300 0 
84 1 1 0.0222359 -0.0105752 0.0106139 0 0 0 0.0426778 0.00126268 0.0611571 -0.23767 -0.381293 0.191205 -4.97564 -5.24081 8.78482 0.004 300 0 
136 1 1 0.0361257 -0.0141779 0.0127403 0 0 0 0.0778943 -0.239363 -0.0703255 0.162159 -0.399085 -0.399253 -2.30928 0.239044 3.20541 0.004 300 0 
180 1 1 0.0439247 -0.0138894 0.0106132 0 0 0 -0.063132 0.0551193 0.22113 -0.0985068 0.0133855 0.109582 -20.4069 34.2039 9.2402 0.004 300 0 
197 1 1 -0.0457034 -0.00538138 0.0114286 0 0 0 -0.108406 0.209713 0.068598 -0.717966 0.260661 -0.0338379 -13.6384 18.4469 -8.09252 0.004 300 0 
71 1 1 -0.0354721 -0.00914137 0.0101493 0 0 0 -0.197955 -0.0473772 -0.0163953 -0.398359 0.00414872 -0.0971805 -1.30694 -4.9728 0.456197 0.004 300 0 
7 1 1 -0.0201258 -0.00695105 0.0146612 0 0 0 -0.0751746 0.0606408 -0.0863509 0.0191985 0.0385331 -0.0187168 -4.89447 -7.67628 0.673209 0.004 300 0 
103 1 1 0.0157045 -0.0058532 0.0119178 0 0 0 0.0729483 0.0684603 -0.271431 0.188569 -0.265251 0.0976296 18.5994 3.125 8.67048 0.004 300 0 
156 1 1 0.0299888 -0.00908991 0.0109811 0 0 0 -0.0357417 -0.129408 -0.422917 0.253529 0.316539 0.604291 6.92464 7.31102 -7.08732 0.004 300 0 
157 1 1 0.0375299 -0.00622182 0.0103991 0 0 0 0.226387 0.00944204 -0.0433769 -0.0986375 0.0900124 0.151794 2.57313 21.4914 3.93643 0.004 300 0 
63 1 1 0.0454554 -0.00549996 0.0106978 0 0 0 -0.0341399 0.08328 0.0184308 0.0969382 -0.215757 0.375217 -31.6229 23.873 -25.886 0.004 300 0 
87 1 1 -0.0368611 -0.00261776 0.0148227 0 0 0 -0.14239 -0.013653 -0.0635893 -0.0232635 -0.12049 -0.0594955 16.3245 -1.64083 -6.53157 0.004 300 0 
130 1 1 -0.0294048 -0.00518342 0.0131907 0 0 0 -0.246118 -0.0502412 -0.0799654 -0.0779816 -0.00377369 -0.476075 -6.30679 3.78353 1.69835 0.004 300 0 
57 1 1 -0.00431359 -0.00352985 0.0127478 0 0 0 -0.180781 0.0458105 0.00632108 0.105209 -0.0377328 0.0683117 1.9974 9.72326 3.24144 0.004 300 0 
18 1 1 0.00396742 -0.0031234 0.0101552 0 0 0 -0.0364543 0.0249398 -0.00175923 -0.0256527 0.00186006 0.00851731 -15.6268 -6.03114 -9.60066 0.004 300 0 
31 1 1 0.0229682 -0.00269982 0.0107245 0 0 0 0.038561 -0.0364633 -0.0661829 -0.016294 -0.0808767 -0.145578 -12.5151 -0.365977 -7.8315 0.004 300 0 
588 1 1 0.0309503 -0.000998654 0.0109443 0 0 0 0.251791 0.0600028 -0.0521179 -0.0371731 0.0104795 0.093934 11.5127 10.6066 6.07701 0.004 300 0 
105 1 1 -0.0197268 -0.0415443 0.0165737 0 0 0 0.138939 0.00226974 0.0479917 -0.15736 0.00106574 0.0429179 -9.0613 14.3236 -8.09317 0.004 300 0 
107 1 1 -0.012504 -0.0443901 0.0179997 0 0 0 0.0698462 -0.0776688 0.0185341 -0.125213 0.187029 0.0609551 -10.6571 -11.7119 14.9877 0.004 300 0 
222 1 1 -0.00507564 -0.0422492 0.0168469 0 0 0 0.129987 0.0708413 -0.0109871 0.222838 -0.228894 0.041433 -15.5372 -3.47307 10.3452 0.004 300 0 
142 1 1 0.00264502 -0.0409172 0.0180209 0 0 0 0.164399 -0.0901188 -0.208999 0.0942704 0.0567563 -0.0175723 39.651 26.5547 -8.43767 0.004 300 0 
150 1 1 -0.0272928 -0.0370966 0.0162879 0 0 0 0.00867051 0.111316 -0.0898128 -0.158074 -0.116241 0.138586 -29.344 11.8841 5.27468 0.004 300 0 
199 1 1 -0.0107437 -0.0365903 0.0178844 0 0 0 0.12822 -0.137323 -0.0377685 -0.162458 -0.313753 -0.213619 12.8123 -14.4384 7.15889 0.004 300 0 
93 1 1 0.0117038 -0.0376217 0.0169176 0 0 0 0.0429286 0.067615 0.0986642 -0.00111925 0.046352 -0.00886859 -0.998143 39.4771 6.88939 0.004 300 0 
174 1 1 -0.0237262 -0.0300687 0.0157003 0 0 0 0.00186162 0.077218 0.063502 -0.322871 -0.326751 0.0473337 8.3293 -15.4443 -9.97777 0.004 300 0 
64 1 1 0.0258026 -0.0352947 0.0162763 0 0 0 0.0734149 -0.167529 0.102249 -0.0199933 -0.0507471 0.0308368 -16.6221 17.6879 16.7001 0.004 300 0 
80 1 1 -0.0105267 -0.0260135 0.0179119 0 0 0 0.0579555 -0.0991649 0.0947918 0.184236 0.256647 -0.745839 -14.6596 -3.60636 5.55152 0.004 300 0 
125 1 1 -0.00259018 -0.0279586 0.0165775 0 0 0 -0.0492233 0.0126514 0.0852755 0.18608 -0.0481005 0.130093 5.45973 11.1173 23.22 0.004 300 0 
88 1 1 0.0129007 -0.0297415 0.0165364 0 0 0 0.112898 0.21563 -0.0796069 -0.505823 0.331626 0.730105 -9.98519 27.392 -3.71442 0.004 300 0 
52 1 1 -0.0336135 -0.0241073 0.0173795 0 0 0 -0.20585 0.114853 0.0959669 -0.570753 -0.0663906 -0.160338 34.5374 23.5263 -9.33264 0.004 300 0 
70 1 1 -0.0260071 -0.0232914 0.0188401 0 0 0 -0.194394 0.0282214 -0.073249 0.180171 -0.101326 -0.379678 15.84 -30.119 5.97575 0.004 300 0 
132 1 1 -0.0188455 -0.0239062 0.0150875 0 0 0 -0.234334 -0.00105803 -0.153381 -0.0132763 0.315126 0.214706 13.8599 -15.5037 -0.665252 0.004 300 0 
129 1 1 0.0112801 -0.0221687 0.0182382 0 0 0 -0.0102994 0.0886398 0.103926 -0.0541774 0.111259 -0.100562 -0.829453 27.4923 -8.57503 0.004 300 0 
178 1 1 0.0311657 -0.022678 0.0161191 0 0 0 -0.0916054 -0.0912655 0.0545428 -0.0358733 0.0454783 0.0116318 17.8912 -14.9766 -4.51301 0.004 300 0 
168 1 1 -0.0240348 -0.0161546 0.0160173 0 0 0 -0.0956846 0.0615132 -0.0877568 0.0776151 -0.192052 0.325765 -2.25763 -6.86651 -5.72797 0.004 300 0 
202 1 1 -0.0131313 -0.0178821 0.017201 0 0 0 0.0721816 -0.0236832 0.085245 -0.038873 -0.021589 0.0999759 -14.3473 -4.74902 15.9979 0.004 300 0 
45 1 1 0.000676837 -0.0154992 0.0159772 0 0 0 -0.00911964 0.0492317 -0.102134 -0.286303 -0.341105 0.090936 -8.71198 -11.057 -4.58462 0.004 300 0 
1 1 1 0.0427015 -0.0171615 0.018833 0 0 0 -0.0540718 -0.113138 -0.507121 0.0411692 -0.469127 -0.140204 10.4466 -29.9239 -29.2727 0.004 300 0 
43 1 1 -0.0368898 -0.0145147 0.0157576 0 0 0 -0.0445735 0.0650508 0.0327666 0.218868 0.151847 0.117218 -5.69511 13.0666 1.81414 0.004 300 0 
121 1 1 -0.00678008 -0.012315 0.018677 0 0 0 0.0875418 0.0269303 -0.149734 0 0 -0.0210391 -2.6449 12.1235 19.941 0.004 300 0 
42 1 1 0.0192461 -0.0144285 0.0168163 0 0 0 0.0636313 -0.0358134 0.0824736 -0.077582 -0.0912169 0.14517 5.96678 15.4492 -8.74691 0.004 300 0 
82 1 1 0.0292122 -0.0148462 0.0168173 0 0 0 -0.0865257 -0.0308165 0.0905929 -0.137318 0.137464 0.0166514 -9.95422 -24.3744 -4.27566 0.004 300 0 
135 1 1 -0.0417477 -0.00855598 0.0170888 0 0 0 -0.215621 -0.0310875 -0.0827345 0.0542053 -0.0959502 0.415711 -7.25048 8.65638 24.7131 0.004 300 0 
145 1 1 -0.0117854 -0.00656218 0.0154713 0 0 0 -0.0140748 0.217772 -0.351961 0.125965 -0.0489947 0.244954 23.8772 -2.29867 1.56625 0.004 300 0 
186 1 1 0.00111574 -0.0077638 0.0172471 0 0 0 0.0229858 0.0805426 -0.219404 0.0436 -0.193182 0.0124697 -15.0102 11.3353 -2.76997 0.004 300 0 
56 1 1 0.0127392 -0.00993254 0.0186454 0 0 0 0.0592197 -0.0267972 -0.272457 0.13799 0.162139 0.0679262 2.53634 6.05011 4.08847 0.004 300 0 
191 1 1 0.0193349 -0.00546053 0.0193177 0 0 0 -0.0939955 0.0469982 -0.120953 -0.0618526 -0.166071 0.0973544 -0.788243 -21.3558 4.48865 0.004 300 0 
60 1 1 0.0341234 -0.00850552 0.0176589 0 0 0 0.0577497 0.0155477 -0.0810329 -0.48515 0.237862 0.364672 -29.5332 -5.64625 -9.50901 0.004 300 0 
92 1 1 0.0419404 -0.00948618 0.0177007 0 0 0 0.00818636 0.0345069 -0.232723 -0.24847 -0.517841 -0.430656 1.39217 -7.60851 -6.2528 0.004 300 0 
192 1 1 -0.0443853 -0.00117595 0.0184354 0 0 0 -0.447904 -0.105962 -0.139194 0.0330193 -0.0207254 0.143388 -2.06466 -23.7859 2.56223 0.004 300 0 
106 1 1 0.00940589 -0.00254944 0.016529 0 0 0 -0.124914 0.0251808 -0.0273181 -0.0288646 -0.0669006 0.067786 7.68953 22.7445 -10.9141 0.004 300 0 
208 1 1 0.0272433 -0.00447969 0.0170499 0 0 0 0.0927535 -0.133756 -0.0271526 0.269759 -0.209039 -0.295541 -20.6347 -1.36516 -25.7987 0.004 300 0 
133 1 1 0.0385542 -0.00203168 0.01711 0 0 0 -0.0581485 0.225787 -0.0774011 0.0959005 0.193276 -0.148519 16.7175 -8.67527 6.06593 0.004 300 0 
172 1 1 0.00821499 -0.0453287 0.0216287 0 0 0 0.0755647 -0.124608 -0.266785 -0.00426207 0.187389 0.0106067 -8.3512 -14.4588 -4.46918 0.004 300 0 
127 1 1 -0.00833548 -0.0447443 0.0247957 0 0 0 -0.0315337 -0.385322 0.108216 0.228432 -0.138851 -0.0293466 38.0548 31.2929 -7.03215 0.004 300 0 
109 1 1 0.0194021 -0.0417451 0.0204239 0 0 0 -0.0851118 -0.0227657 0.0565302 0.0183011 -0.328232 -0.0167329 11.7333 1.14492 -7.16765 0.004 300 0 
114 1 1 0.012199 -0.0390462 0.0248411 0 0 0 -0.00804284 0.170629 0.162389 0 0 -0.0210391 -19.04 -40.8789 16.3082 0.004 300 0 
38 1 1 -0.0210745 -0.0352651 0.0214919 0 0 0 0.0808567 -0.104665 0.0596581 0.858438 -0.0250654 -0.486245 36.0383 8.13761 -9.89978 0.004 300 0 
85 1 1 -0.0142812 -0.0311792 0.0224704 0 0 0 0.163484 -0.0955149 -0.297478 -0.303006 -0.187901 0.369911 5.46601 -33.0657 13.7664 0.004 300 0 
32 1 1 -0.0042384 -0.0342322 0.0215674 0 0 0 -0.0429821 -0.108916 0.0875318 0.276693 -0.203609 -0.167802 12.388 16.8128 11.8793 0.004 300 0 
128 1 1 0.00580098 -0.0332129 0.0199398 0 0 0 -0.208874 0.232095 -0.281003 -0.00320121 0.00240402 -0.0191584 -13.6613 16.7574 8.96502 0.004 300 0 
137 1 1 0.0190267 -0.0339331 0.0201771 0 0 0 0.22183 0.14623 -0.0258325 -0.0970578 0.35642 0.000515843 -0.224284 -9.64833 0.942271 0.004 300 0 
154 1 1 0.0324051 -0.0320368 0.0202071 0 0 0 0.152317 0.282146 -0.143914 0 0 -0.0210391 -8.62076 -20.7911 -10.1864 0.004 300 0 
22 1 1 -0.0346441 -0.0304636 0.0226217 0 0 0 -0.278374 -0.127048 -0.0200391 0.46573 0.37301 -0.00937435 29.9373 16.2135 -6.92935 0.004 300 0 
196 1 1 0.00295535 -0.0256683 0.0217533 0 0 0 0.293291 0.0319682 -0.23244 -0.0436837 -0.013198 -0.0132486 5.14671 0.135861 -7.98825 0.004 300 0 
34 1 1 0.0254848 -0.02745 0.0193936 0 0 0 0.0918605 -0.0564537 -0.153299 0.256837 -0.057402 -0.637192 11.9372 -2.96034 -7.64208 0.004 300 0 
49 1 1 0.0390272 -0.0240315 0.020617 0 0 0 0.0669718 0.205799 -0.107326 -0.0228494 -0.0418164 -0.012568 -0.214922 -2.4631 -1.66056 0.004 300 0 
218 1 1 -0.0397128 -0.0225482 0.0229238 0 0 0 -0.258508 -0.571256 -0.286898 0 0 -0.0210391 -6.19243 24.9451 -17.3181 0.004 300 0 
204 1 1 -0.0165789 -0.0232133 0.0223482 0 0 0 0.0272383 -0.182767 -0.0183705 -0.026581 -0.0187163 0.31603 -3.70685 -4.03249 2.35925 0.004 300 0 
86 1 1 -0.00435118 -0.0206998 0.0192365 0 0 0 -0.124515 0.0101478 -0.167191 -0.0766243 0.075709 0.0648981 -25.5415 -13.9378 -16.2574 0.004 300 0 
72 1 1 0.0189938 -0.0230592 0.0199339 0 0 0 0.141004 0.0763884 -0.576728 -0.369731 -0.00850825 0.164189 -27.2862 -26.3813 -5.30625 0.004 300 0 
3 1 1 0.031648 -0.0246882 0.0238129 0 0 0 0.0831242 -0.270897 0.0298513 0.000554892 -0.00611818 0.00557516 1.81833 19.1332 19.2971 0.004 300 0 
173 1 1 -0.0433371 -0.0155829 0.0202477 0 0 0 -0.0510644 -0.128141 0.00855969 -0.0104344 -0.176751 0.137902 -3.84665 4.58844 -14.423 0.004 300 0 
16 1 1 0.0125067 -0.0164086 0.0237409 0 0 0 0.0244272 -0.123769 -0.19196 0.448071 -0.0214513 -0.439107 -6.83095 -13.564 -2.63628 0.004 300 0 
97 1 1 0.0350275 -0.0170924 0.0216495 0 0 0 -0.156657 -0.330654 -0.0673212 0.183881 -0.0584796 0.133195 -10.3599 30.9899 37.7626 0.004 300 0 
50 1 1 -0.0311118 -0.0140877 0.0209951 0 0 0 0.308945 -0.0644378 -0.226167 0.343086 -0.138342 -0.101831 -2.0649 -8.23399 17.5656 0.004 300 0 
29 1 1 -0.0183361 -0.0126244 0.0200933 0 0 0 -0.00375919 -0.036047 0.032182 0.27533 0.347756 -0.0119955 -3.1509 0.774317 -2.49817 0.004 300 0 
68 1 1 -0.00137751 -0.0146109 0.0241901 0 0 0 0.0634778 0.0969897 -0.00744464 0.288974 0.111117 -0.155604 -3.21162 17.9559 15.3453 0.004 300 0 
28 1 1 0.00581634 -0.0127825 0.0212862 0 0 0 0.0901969 0.0226876 -0.0185353 0.0841507 0.0830104 0.122305 -11.8446 3.74948 -30.263 0.004 300 0 
44 1 1 0.0245728 -0.0107374 0.0219149 0 0 0 -0.0859269 0.0649167 0.129432 0.152277 -0.160629 0.0452883 7.37827 -11.6926 -12.8969 0.004 300 0 
81 1 1 -0.0371549 -0.00670949 0.0229206 0 0 0 0.362165 0.244821 -0.396819 0.616044 0.251068 0.768273 -31.027 26.503 2.51513 0.004 300 0 
190 1 1 -0.0260104 -0.0083028 0.019559 0 0 0 -0.25513 0.228616 -0.118077 0.0249694 0.0613729 0.44734 -37.4559 -12.9136 22.9117 0.004 300 0 
66 1 1 -0.0123508 -0.00839831 0.0231026 0 0 0 -0.0521865 0.104816 0.00203677 -0.19884 -0.0822867 0.0966414 -18.0254 19.2574 4.12162 0.004 300 0 
206 1 1 -0.0191941 -0.00431254 0.0220954 0 0 0 -0.209486 0.0952612 -0.0254635 0.000696474 -0.107854 0.0338744 -20.911 12.1842 -1.26205 0.004 300 0 
111 1 1 -0.00592807 -0.0045412 0.020695 0 0 0 0.123562 0.0830898 -0.0492773 0.0304302 0.0361074 -0.324652 -23.7562 -0.908474 5.85274 0.004 300 0 
78 1 1 0.00579069 -0.00408126 0.0234249 0 0 0 -0.0499804 -0.100457 -0.012701 -0.17335 -0.530618 -0.266461 -21.471 -21.3884 -21.446 0.004 300 0 
164 1 1 0.04614 -0.00317537 0.0189831 0 0 0 0.0344155 0.0263428 0.000218455 -0.361148 0.775005 0.164405 -9.32739 -19.2695 4.34487 0.004 300 0 
110 1 1 -0.0279942 -0.0364574 0.0247117 0 0 0 0.0500709 0.170246 0.0406524 -0.765324 -0.172708 0.356367 -3.64469 16.6906 -23.3202 0.004 300 0 
126 1 1 -0.0150365 -0.0405251 0.0248405 0 0 0 0.323147 -0.515393 -0.328393 -0.22432 0.138789 -0.00651866 0.489729 34.9345 16.7796 0.004 300 0 
143 1 1 0.000496143 -0.0397416 0.025914 0 0 0 0.142892 -0.0136866 -0.420604 0.0268418 0.473873 -0.93415 22.3805 21.2491 19.6594 0.004 300 0 
216 1 1 0.00539915 -0.0311119 0.027654 0 0 0 0.285073 -0.233116 -0.556705 0 0 -0.0210391 -9.69693 0.373014 12.4125 0.004 300 0 
149 1 1 0.0131051 -0.0306803 0.0243274 0 0 0 0.0640334 0.200912 -0.0957108 -0.000924733 0.0699491 0.126966 -0.802858 -10.1788 10.0139 0.004 300 0 
35 1 1 0.0232516 -0.0373411 0.0262794 0 0 0 0.276542 -0.560449 -0.222931 0 0 -0.0210391 -23.1839 -4.6793 -4.06561 0.004 300 0 
134 1 1 -0.0245265 -0.0287391 0.024226 0 0 0 -0.410759 -0.181866 -0.12917 0.107444 -0.792791 -0.567253 -2.76102 -2.76535 -18.3273 0.004 300 0 
36 1 1 -0.00969346 -0.0249475 0.0256769 0 0 0 0.144878 0.245803 -0.49149 0.421101 -0.055765 0.581882 -2.42772 23.049 11.9399 0.004 300 0 
182 1 1 -0.00264675 -0.0290014 0.0271834 0 0 0 0.106039 -0.276207 -0.0698662 0.0814973 -0.124222 0.212343 -37.0292 16.7737 -1.1719 0.004 300 0 
166 1 1 0.0254252 -0.0289768 0.0270085 0 0 0 0.141735 -0.310374 -0.547039 0.0699063 -0.465344 0.571104 -2.96737 15.589 7.32476 0.004 300 0 
51 1 1 -0.0306015 -0.0218797 0.025105 0 0 0 -0.277949 -0.192757 -0.339317 0.600364 0.444622 -2.17973 -20.6887 4.75301 15.436 0.004 300 0 
122 1 1 -0.0171889 -0.0197361 0.0292593 0 0 0 -0.00350311 0.225154 -0.161284 0.0142471 -0.100527 0.192867 5.40039 2.36883 19.2642 0.004 300 0 
138 1 1 -0.00262506 -0.0212786 0.0283596 0 0 0 0.260336 -0.127678 -0.63479 0.243475 0.289117 -0.494445 -2.81779 10.0529 -11.4942 0.004 300 0 
25 1 1 0.00935947 -0.0234011 0.0258572 0 0 0 0.0939399 -0.231089 -0.0900515 -0.736912 0.230136 -0.882453 12.2908 19.1083 20.4799 0.004 300 0 
209 1 1 0.0170426 -0.0238293 0.0273149 0 0 0 -0.0537431 0.0523228 -0.23812 0.317054 -0.170416 0.675657 17.9384 -3.83434 16.7492 0.004 300 0 
14 1 1 -0.0228568 -0.0180866 0.0235178 0 0 0 -0.000589811 0.0427733 -0.0507111 0.285408 0.313548 0.718744 4.76844 -26.4809 -13.6175 0.004 300 0 
147 1 1 -0.00898016 -0.0158552 0.025714 0 0 0 -0.0428271 -0.00658737 -0.313262 -0.105897 -0.151875 -0.36997 -11.5828 -18.7901 -9.061 0.004 300 0 
94 1 1 0.0205261 -0.016585 0.0265941 0 0 0 -0.0643164 -0.102037 -0.788564 -1.06381 0.314846 -0.0831988 -23.2559 -12.8349 -22.8573 0.004 300 0 