ITEM: TIMESTEP
41600
ITEM: NUMBER OF ATOMS
890
ITEM: BOX BOUNDS mm mm mm
-0.05 0.05
-0.05 0.05
0 0.15
ITEM: ATOMS id type type x y z ix iy iz vx vy vz fx fy fz omegax omegay omegaz radius f_Temp[0] f_heatFlux[0] 
59 1 1 -0.000715548 -0.0460982 0.00395597 0 0 0 -2.06211e-08 -6.93252e-08 -1.76138e-07 -9.36147e-08 6.47981e-08 1.06121e-07 -2.90445e-05 -5.09556e-06 9.81092e-06 0.004 539.516 0.320526 
170 1 1 -0.0173498 -0.0426414 0.00397301 0 0 0 -1.35251e-07 -8.5356e-08 -1.60783e-07 -9.30076e-08 1.6821e-08 -1.46304e-09 -1.22535e-05 -4.93316e-06 1.3298e-05 0.004 427.022 2.96677 
15 1 1 -0.00975016 -0.0449638 0.00393397 0 0 0 -4.94646e-08 -1.75483e-07 -2.23013e-07 -8.16618e-08 9.82441e-08 7.71866e-08 4.2584e-05 1.60143e-05 -2.78867e-05 0.004 459.957 2.45104 
116 1 1 0.00648761 -0.0428197 0.00395869 0 0 0 -4.6914e-08 -2.15749e-07 -2.974e-07 -1.99732e-07 5.99729e-08 1.92646e-07 -5.86629e-06 1.24757e-06 -2.23153e-05 0.004 603.535 -1.23857 
158 1 1 0.0143627 -0.0437625 0.0038998 0 0 0 1.2883e-08 -1.60037e-07 -2.13129e-07 -2.09664e-07 1.20474e-07 2.19692e-07 1.20825e-05 -7.99229e-07 2.7329e-05 0.004 647.829 -2.17177 
98 1 1 0.0216779 -0.0406527 0.00394261 0 0 0 -7.40593e-08 -9.27467e-08 -1.21341e-07 -1.75136e-07 5.95382e-08 1.82115e-07 -3.29206e-06 -9.69946e-06 5.73302e-06 0.004 687.41 -2.76065 
169 1 1 -0.0244315 -0.0390659 0.00391427 0 0 0 -2.30014e-07 -1.90556e-07 -3.00239e-07 -9.32989e-08 -3.92179e-09 -2.06028e-09 -9.71644e-06 -1.83311e-05 2.04977e-05 0.004 387.789 3.15078 
89 1 1 -0.011812 -0.0369235 0.00395462 0 0 0 -2.54588e-07 -2.03607e-07 -3.92762e-07 -2.01051e-07 6.69361e-08 1.00905e-07 6.28941e-05 4.12194e-05 -2.96665e-05 0.004 449.914 2.28744 
152 1 1 -0.00418342 -0.0390223 0.00390523 0 0 0 -2.31274e-07 -1.97364e-07 -5.95872e-07 -2.42493e-07 1.22267e-07 2.94386e-07 -6.93693e-06 -4.09017e-05 5.41283e-05 0.004 508.272 1.02352 
23 1 1 0.0153483 -0.035882 0.00391128 0 0 0 -1.97957e-07 -1.71573e-07 -2.99529e-07 -3.65928e-07 1.24518e-07 4.81331e-07 3.39156e-06 -5.34614e-05 2.58063e-05 0.004 658.611 -2.33183 
118 1 1 -0.0307533 -0.0342397 0.00392725 0 0 0 -2.34648e-07 -1.53638e-07 -2.49417e-07 -1.10263e-07 -1.18921e-08 -4.25488e-08 1.5674e-05 -4.62243e-05 1.36548e-05 0.004 357.564 3.10542 
30 1 1 -0.0188787 -0.0333717 0.00395275 0 0 0 -4.97111e-07 -1.82691e-07 -4.52362e-07 -2.08465e-07 7.03975e-08 4.81684e-08 -1.34233e-05 -0.000102229 2.97824e-05 0.004 400.61 2.91567 
215 1 1 -0.00603631 -0.0313238 0.00390661 0 0 0 -2.21214e-07 -3.65089e-07 -5.81299e-07 -4.00735e-07 2.36152e-07 2.79478e-07 5.58131e-05 1.63243e-05 -4.03453e-05 0.004 487.779 1.42664 
74 1 1 0.00184141 -0.0338192 0.00390679 0 0 0 -2.57288e-07 -1.46149e-07 -5.83003e-07 -4.54303e-07 2.30511e-07 4.15918e-07 5.12e-06 -3.46379e-05 -2.99038e-05 0.004 556.878 -0.119175 
24 1 1 0.00917857 -0.0308342 0.00392034 0 0 0 -3.83052e-07 -2.49112e-07 -5.20276e-07 -4.96348e-07 1.23444e-07 4.70258e-07 2.91118e-05 -7.8761e-05 2.02749e-05 0.004 623.94 -1.61194 
198 1 1 0.0259423 -0.0339524 0.00395551 0 0 0 -2.45606e-07 -1.62915e-07 -2.03684e-07 -3.62339e-07 -3.29824e-08 3.50186e-07 -1.04954e-05 -7.02162e-05 3.39292e-05 0.004 719.69 -2.96427 
161 1 1 0.0335301 -0.0316074 0.00391357 0 0 0 -8.36765e-08 -1.48234e-07 -8.84715e-08 -2.22321e-07 6.21538e-08 2.7544e-07 1.88273e-05 -1.44552e-05 2.06684e-05 0.004 744.899 -2.84667 
8 1 1 -0.0322699 -0.0264156 0.00398405 0 0 0 -3.85085e-07 -1.94602e-07 -3.43052e-07 -1.97295e-07 -4.35919e-08 -8.51827e-08 -1.18334e-05 8.52626e-05 1.17216e-05 0.004 348.707 2.84711 
12 1 1 -0.0244143 -0.0276959 0.00386439 0 0 0 -6.6489e-07 -3.02983e-07 -7.21833e-07 -3.0639e-07 -1.55854e-09 -6.01858e-08 7.97649e-05 -9.89924e-05 1.07486e-06 0.004 374.826 2.96424 
188 1 1 -0.0131742 -0.0277762 0.00396588 0 0 0 -6.07692e-07 -7.39444e-08 -2.74945e-07 -3.98526e-07 1.87677e-07 1.85318e-07 7.31909e-07 -0.000108797 4.45531e-05 0.004 420.12 2.70167 
77 1 1 -0.000100233 -0.0260809 0.00389416 0 0 0 -7.62012e-07 -2.75833e-07 -5.57106e-07 -4.61466e-07 1.87686e-07 3.2539e-07 3.30155e-05 -0.000145053 0.000154072 0.004 542.916 0.166089 
113 1 1 0.0165643 -0.0280203 0.00388659 0 0 0 -4.48981e-07 -1.43234e-07 -2.22702e-07 -5.16156e-07 6.97051e-08 5.04829e-07 1.58664e-05 -5.0681e-05 3.87449e-05 0.004 675.5 -2.45132 
183 1 1 0.0384541 -0.0253742 0.00393847 0 0 0 -1.21551e-07 -1.03942e-07 -2.41297e-08 -2.42778e-07 5.97541e-08 2.8475e-07 1.68394e-05 -6.65328e-06 3.72517e-05 0.004 763.111 -2.51086 
162 1 1 -0.0396311 -0.023418 0.00390783 0 0 0 -3.31088e-07 -4.60149e-08 -1.57395e-07 -1.42799e-07 -8.23229e-09 -5.2311e-08 1.86851e-05 -6.83537e-05 -5.08087e-05 0.004 330.495 2.34093 
53 1 1 -0.027206 -0.0202486 0.00395169 0 0 0 -8.80612e-07 -9.60512e-08 -5.14143e-07 -4.64447e-07 5.88062e-08 -1.18428e-07 -2.75694e-05 -0.000212806 4.79902e-05 0.004 358.525 2.84706 
148 1 1 -0.0187584 -0.0220642 0.00393817 0 0 0 -9.19118e-07 -2.25028e-07 -6.75252e-07 -5.06163e-07 7.29121e-08 -1.87498e-08 1.37479e-06 -0.000163007 3.14768e-05 0.004 397.92 2.92037 
195 1 1 -0.00727816 -0.02155 0.00394566 0 0 0 -8.56636e-07 -1.2021e-08 -4.79563e-07 -9.35106e-07 -2.54769e-08 2.94859e-07 1.3295e-05 -0.00013145 -1.55739e-05 0.004 474.119 1.74733 
179 1 1 0.0073663 -0.0231031 0.00394274 0 0 0 -8.13292e-07 -3.93068e-07 -5.5732e-07 -6.31621e-07 5.2324e-08 2.51498e-07 6.32571e-05 -0.000123906 6.90981e-05 0.004 622.789 -1.63295 
95 1 1 0.0148506 -0.02031 0.00393211 0 0 0 -7.13592e-07 -2.46313e-07 -1.59838e-07 -6.71857e-07 -1.79658e-08 7.14963e-07 4.01975e-05 -7.28263e-05 -1.34722e-05 0.004 671.749 -2.38381 
76 1 1 0.0230028 -0.0233057 0.00397473 0 0 0 -5.4373e-07 -3.99948e-07 -1.45531e-07 -6.17417e-07 -1.16532e-07 4.62885e-07 5.88442e-05 -6.91522e-05 -3.59451e-05 0.004 725.406 -2.91992 
100 1 1 0.0325586 -0.0200895 0.00388595 0 0 0 -4.99385e-07 -3.69514e-07 -6.08478e-08 -6.59348e-07 -1.77812e-10 6.60949e-07 8.39866e-05 -0.000121789 2.82489e-05 0.004 754.733 -2.62679 
65 1 1 -0.0430742 -0.0162802 0.00393146 0 0 0 -2.45276e-07 4.911e-08 -1.69829e-07 -1.25576e-07 2.15159e-08 -1.06788e-07 -4.38609e-07 1.43837e-05 2.37525e-05 0.004 322.181 1.98603 
102 1 1 -0.0351583 -0.0155178 0.0039445 0 0 0 -7.88361e-07 1.156e-07 -4.25274e-07 -3.91105e-07 8.83721e-08 -1.79932e-07 -3.34284e-05 -8.9298e-05 -1.40952e-05 0.004 333.438 2.29553 
213 1 1 -0.0132588 -0.0162738 0.00397365 0 0 0 -1.06497e-06 -7.18176e-08 -3.18915e-07 -5.16135e-07 1.00299e-07 5.42416e-08 5.98404e-05 -0.000148672 4.97324e-05 0.004 423.6 2.63552 
10 1 1 0.00114847 -0.0182524 0.00475003 0 0 0 -1.20965e-06 -4.28964e-07 -4.79973e-07 -7.32439e-07 -2.09817e-08 3.54098e-07 6.26206e-06 9.52508e-05 -8.08998e-05 0.004 563.974 -0.389131 
5 1 1 0.00879792 -0.0152553 0.00390315 0 0 0 -8.86734e-07 -3.77604e-07 -1.87087e-07 -7.05035e-07 -7.54174e-08 5.28054e-07 8.9881e-05 -0.000125989 1.89062e-05 0.004 631.927 -1.76833 
96 1 1 0.0211693 -0.0155242 0.00395652 0 0 0 -4.73281e-07 -4.45973e-07 -1.89242e-07 -5.77575e-07 -2.0251e-07 5.75974e-07 2.00257e-05 2.32367e-06 -3.24505e-05 0.004 719.843 -2.76363 
167 1 1 0.0421923 -0.0183683 0.00392112 0 0 0 -9.73099e-08 -5.55986e-08 9.42917e-09 -2.61245e-07 5.84001e-08 1.76829e-07 1.35454e-05 -1.61681e-05 -1.01725e-05 0.004 777.484 -2.05033 
124 1 1 -0.029011 -0.0104716 0.00394792 0 0 0 -1.12634e-06 6.14193e-08 -3.87366e-07 -6.04062e-07 1.74809e-07 -7.90456e-08 -2.62308e-05 -0.000192024 -1.99562e-05 0.004 352.217 2.56887 
220 1 1 -0.0217759 -0.0144543 0.00398045 0 0 0 -1.09959e-06 1.30368e-07 -3.05626e-07 -5.77227e-07 1.53669e-07 -5.24324e-08 -0.000152739 -0.000124434 5.72429e-05 0.004 378.854 2.76748 
144 1 1 -0.00535516 -0.0138038 0.00388181 0 0 0 -1.20854e-06 -3.51587e-07 -5.17799e-07 -7.11659e-07 -8.15279e-08 3.95719e-07 4.38064e-05 -0.000252251 9.00211e-05 0.004 507.984 0.786143 
26 1 1 0.00255574 -0.0104629 0.00390569 0 0 0 -1.14948e-06 -6.36001e-07 -9.63512e-08 -7.16358e-07 -2.15002e-07 5.71351e-07 0.000157624 -0.000177852 6.88313e-05 0.004 568.189 -0.50581 
194 1 1 0.0287353 -0.013103 0.0039308 0 0 0 -6.40485e-07 -4.57503e-07 1.54101e-08 -7.53432e-07 -1.33028e-07 7.48648e-07 8.104e-05 -0.000116376 3.11254e-05 0.004 748.574 -2.66374 
37 1 1 0.0366701 -0.0122308 0.00393305 0 0 0 -4.65918e-07 -4.53042e-07 1.8066e-07 -7.31622e-07 -1.12508e-07 8.76668e-07 8.74168e-05 -7.16113e-05 -0.000109141 0.004 771.667 -2.21146 
219 1 1 0.0447285 -0.0108715 0.00390888 0 0 0 -6.27062e-08 -5.00205e-08 5.40202e-08 -1.36258e-07 -1.87621e-08 9.90253e-08 -9.24789e-06 -1.00137e-05 1.06446e-06 0.004 783.928 -1.75771 
636 1 1 -0.0451997 -0.00864275 0.00391771 0 0 0 -1.75129e-07 2.61069e-08 -3.37674e-08 -1.58555e-07 5.73432e-09 -1.14109e-07 4.64436e-06 -3.079e-05 -1.45233e-05 0.004 315.523 1.66314 
39 1 1 -0.0161466 -0.00885108 0.00388992 0 0 0 -1.25466e-06 -7.08377e-08 -5.01348e-07 -5.66564e-07 3.88388e-08 -5.75432e-08 1.12193e-05 -0.000160791 -6.25672e-05 0.004 416.236 2.29164 
171 1 1 -0.00395983 -0.00597828 0.00392048 0 0 0 -1.25979e-06 -5.36693e-07 -2.07565e-07 -6.37432e-07 -1.45769e-07 3.29771e-07 7.0992e-05 -0.000151562 -6.49582e-05 0.004 512.448 0.645853 
200 1 1 0.0146298 -0.0098652 0.00396379 0 0 0 -7.58267e-07 -5.36356e-07 -3.64543e-08 -6.97856e-07 -2.16731e-07 5.41939e-07 4.45391e-05 -6.42054e-05 -4.12915e-05 0.004 677.54 -2.48183 
21 1 1 0.022252 -0.00762162 0.00394337 0 0 0 -5.45967e-07 -5.74412e-07 1.1597e-07 -6.09868e-07 -3.09012e-07 7.79463e-07 0.000104526 -3.97018e-05 3.33637e-05 0.004 722.512 -2.77334 
17 1 1 0.0298456 -0.00520717 0.00394875 0 0 0 -5.9541e-07 -4.95216e-07 3.93498e-07 -5.91751e-07 -2.85566e-07 9.7984e-07 6.99465e-05 -0.000112722 -3.06125e-05 0.004 748.285 -2.68315 
477 1 1 -0.0445832 -0.000710815 0.00396286 0 0 0 -2.86905e-07 -5.33553e-09 -3.83474e-08 -2.31843e-07 7.07162e-09 -1.54722e-07 -4.55778e-06 -5.37593e-05 2.79059e-05 0.004 314.707 1.58344 
140 1 1 -0.0352672 -0.00371827 0.0038725 0 0 0 -7.5152e-07 6.77304e-08 -3.22833e-07 -3.42975e-07 1.33016e-07 -2.69901e-07 -3.29265e-05 -0.000116069 1.57049e-07 0.004 334.165 2.1263 
119 1 1 -0.0273891 -0.00269834 0.00396393 0 0 0 -9.42731e-07 -5.88174e-09 -2.90191e-07 -4.2729e-07 1.97835e-07 -2.57396e-07 3.02971e-06 -1.06427e-05 -3.8674e-05 0.004 359.167 2.44118 
207 1 1 -0.0194911 -0.00168729 0.00389515 0 0 0 -1.12077e-06 -9.04424e-08 -5.0632e-07 -4.62967e-07 4.80445e-08 -2.63934e-07 2.11815e-05 -0.000170034 1.53798e-05 0.004 396.249 2.36822 
69 1 1 -0.0111572 -0.00264551 0.0039301 0 0 0 -1.13247e-06 -3.16184e-07 -2.34315e-07 -5.17353e-07 -2.10286e-08 1.25752e-08 4.2715e-05 -0.000153914 5.44543e-06 0.004 452.24 1.73798 
221 1 1 0.00874804 -0.00448988 0.00393203 0 0 0 -9.15722e-07 -7.76273e-07 2.92463e-09 -6.237e-07 -4.17137e-07 3.91606e-07 0.000177472 -0.000116131 9.02167e-05 0.004 640.972 -1.94789 
457 1 1 0.0163505 -0.0020806 0.0039593 0 0 0 -5.88025e-07 -5.58484e-07 1.53323e-07 -5.44921e-07 -2.85232e-07 5.08253e-07 1.21519e-05 -5.6348e-05 -7.46031e-05 0.004 688.882 -2.60661 
155 1 1 0.0378912 -0.00224685 0.00393693 0 0 0 -4.91979e-07 -4.17742e-07 3.47473e-07 -6.85983e-07 -1.98835e-07 8.16987e-07 8.52056e-05 -0.000125378 -3.25223e-05 0.004 774.098 -2.02609 
665 1 1 0.0459183 -0.00307627 0.0039426 0 0 0 -1.90798e-07 -8.66812e-08 7.67741e-08 -2.50223e-07 -1.65018e-07 1.88349e-07 2.60232e-05 -4.28388e-05 3.40355e-05 0.004 784.059 -1.71337 
120 1 1 0.00918487 -0.0371091 0.00876936 0 0 0 -5.22453e-07 -3.39811e-07 -8.04764e-07 -7.05627e-07 2.12213e-07 6.9289e-07 -2.84948e-05 -8.83852e-05 5.66332e-05 0.004 625.414 -1.70194 
9 1 1 -0.0247147 -0.033359 0.00937625 0 0 0 -9.28315e-07 -3.83808e-07 -8.87816e-07 -4.11198e-07 -2.79739e-09 -6.60527e-08 -3.92046e-05 -4.7334e-05 6.78686e-05 0.004 378.001 3.0696 
101 1 1 -0.0188614 -0.0277191 0.0095515 0 0 0 -1.39392e-06 -3.15601e-07 -9.81153e-07 -7.39236e-07 1.33818e-07 1.05858e-07 -1.52247e-05 -9.25372e-05 0.000122484 0.004 395.838 2.88867 
48 1 1 0.0221998 -0.0293138 0.00920032 0 0 0 -5.6251e-07 -4.76695e-07 -3.76049e-07 -7.6512e-07 2.15114e-08 8.3399e-07 7.69203e-05 3.72534e-05 -7.68532e-05 0.004 709.549 -2.7597 
75 1 1 0.02936 -0.0261745 0.00787422 0 0 0 -5.26056e-07 -5.37919e-07 -3.06387e-07 -6.38931e-07 -1.5688e-07 6.77467e-07 -1.84753e-05 -1.3229e-05 7.97617e-05 0.004 741.737 -2.79013 
46 1 1 -0.0327912 -0.0205809 0.00958352 0 0 0 -1.43032e-06 -2.62933e-07 -1.0174e-06 -7.20164e-07 2.0627e-10 -2.63345e-07 7.32951e-05 7.10993e-05 -1.51535e-06 0.004 345.287 2.57166 
33 1 1 -0.013034 -0.0220249 0.00949571 0 0 0 -1.60581e-06 -4.9854e-08 -6.74192e-07 -1.22177e-06 1.47288e-07 4.2034e-07 -1.67954e-05 -3.80073e-06 3.00863e-05 0.004 425.017 2.53871 
11 1 1 0.02689 -0.0187448 0.00924463 0 0 0 -1.00374e-06 -8.22307e-07 -1.77866e-07 -1.20046e-06 -3.32308e-07 1.17979e-06 1.97248e-05 4.78809e-05 2.99666e-05 0.004 737.359 -2.74442 
71 1 1 -0.0372751 -0.00954696 0.00876625 0 0 0 -9.07007e-07 1.55881e-07 -4.07951e-07 -4.19531e-07 1.01648e-07 -3.31993e-07 7.13491e-05 6.81129e-05 -1.82213e-05 0.004 326.938 2.03887 
62 1 1 -0.0228082 -0.00771373 0.00814041 0 0 0 -1.66867e-06 2.14208e-08 -7.40053e-07 -8.27616e-07 2.4534e-07 -2.84812e-07 -1.66559e-05 4.59874e-05 1.16952e-05 0.004 378.259 2.58501 
19 1 1 -0.00970671 -0.00905634 0.00849073 0 0 0 -2.33906e-06 -7.37621e-07 -7.92438e-07 -1.17719e-06 -3.62997e-08 1.85862e-07 0.000100636 -3.25436e-05 -8.90976e-06 0.004 476.241 1.29271 
187 1 1 0.00796709 -0.00988206 0.00975753 0 0 0 -1.06341e-06 -9.2533e-07 -2.16528e-07 2.70159e-07 -1.12801e-07 3.27248e-07 -5.11661e-05 0.000116851 -0.00013492 0.004 626.518 -1.90395 
157 1 1 0.0395817 -0.00751948 0.00963112 0 0 0 -7.34414e-07 -6.69671e-07 5.07466e-07 -1.06416e-06 -3.18716e-07 1.42058e-06 2.46164e-05 -2.57752e-05 0.000139909 0.004 779.049 -1.91668 
18 1 1 0.00229113 -0.00404902 0.00852646 0 0 0 -2.04248e-06 -1.37189e-06 -1.17047e-07 -1.1509e-06 -5.46586e-07 8.57038e-07 1.47664e-05 -0.000136295 -2.66463e-05 0.004 566.656 -0.433057 
185 1 1 -0.00531148 -0.045735 0.0104438 0 0 0 -2.72565e-07 -2.82183e-07 -4.19282e-07 -2.20175e-07 1.43809e-07 2.38657e-07 -3.87359e-05 -9.17272e-05 4.88027e-05 0.004 502.501 1.27735 
83 1 1 0.00256736 -0.0459473 0.0112661 0 0 0 -2.94801e-07 -2.149e-07 -6.74938e-07 -3.37949e-07 1.88898e-07 4.32701e-07 -0.000162098 0.000138725 4.73368e-06 0.004 563.274 -0.245809 
58 1 1 -0.0218568 -0.0405821 0.0112769 0 0 0 -6.42855e-07 -6.3527e-08 -3.93686e-07 -2.8805e-07 1.11689e-07 7.15349e-08 -5.78566e-05 -5.29491e-05 0.000114311 0.004 392.553 3.08998 
105 1 1 -0.013586 -0.043966 0.0108788 0 0 0 -4.18888e-08 -1.12204e-07 -3.94484e-07 -3.65744e-07 9.54367e-08 8.24869e-08 -6.94073e-05 8.65794e-05 -2.11973e-05 0.004 440.598 3.05155 
223 1 1 0.0103957 -0.0448674 0.0106706 0 0 0 -2.35772e-07 -2.12489e-07 -7.22344e-07 -4.04098e-07 2.01293e-07 4.72289e-07 -0.000103707 -0.00015169 5.45239e-05 0.004 618.874 -1.56685 
217 1 1 0.0179432 -0.0424253 0.0108281 0 0 0 -1.27656e-07 -1.66187e-07 -2.96503e-07 -4.60584e-07 2.24891e-07 4.37837e-07 -2.41474e-05 -4.47975e-05 -3.68096e-07 0.004 664.478 -2.45829 
6 1 1 -0.0162615 -0.0350311 0.0113114 0 0 0 -8.73625e-07 -3.2124e-07 -1.39558e-06 -6.92264e-07 2.63952e-07 3.00479e-07 3.68741e-06 0.000326266 -0.000133575 0.004 417.797 2.72993 
151 1 1 -0.00801307 -0.0382603 0.0108115 0 0 0 -3.63663e-07 -5.47612e-07 -1.165e-06 -6.75415e-07 3.28001e-07 4.18697e-07 6.48399e-06 -7.81349e-06 -6.34537e-07 0.004 474.463 1.85084 
2 1 1 0.000443929 -0.038308 0.010271 0 0 0 -5.78993e-07 -2.98625e-07 -9.98285e-07 -7.27585e-07 4.36744e-07 6.66752e-07 5.09498e-05 -8.0444e-06 -4.21207e-05 0.004 549.363 0.0542831 
117 1 1 0.0249196 -0.0387267 0.0109176 0 0 0 -4.6538e-08 -2.44336e-07 -2.33842e-07 -4.36668e-07 2.07856e-07 3.99027e-07 -2.87012e-06 1.86468e-05 -1.67623e-05 0.004 706.568 -2.90471 
13 1 1 -0.0323455 -0.0327547 0.011537 0 0 0 -6.79221e-07 -2.66201e-07 -6.73447e-07 -3.11923e-07 -1.62986e-08 -1.22429e-07 -2.95583e-05 -1.75362e-05 -9.40461e-06 0.004 355.509 2.9501 
193 1 1 -0.00982578 -0.0305006 0.0107685 0 0 0 -1.25487e-06 -5.24619e-07 -1.89581e-06 -8.41648e-07 2.8152e-07 6.39523e-07 -0.000167623 -0.00033351 0.000196215 0.004 464.712 1.87803 
47 1 1 -0.00133756 -0.0305434 0.0103848 0 0 0 -1.16674e-06 -5.25653e-07 -1.39801e-06 -1.02385e-06 5.04474e-07 6.5401e-07 1.27299e-05 -0.000159104 0.000177288 0.004 538.498 0.271829 
153 1 1 0.00656464 -0.0300231 0.0113662 0 0 0 -1.33446e-06 -5.95047e-07 -1.18076e-06 -1.3085e-06 3.66333e-07 1.03517e-06 6.80631e-05 -6.11765e-05 -1.05386e-05 0.004 603.096 -1.20381 
41 1 1 0.0148076 -0.0317915 0.010654 0 0 0 -9.36232e-07 -4.5857e-07 -7.41934e-07 -1.02302e-06 3.74984e-07 1.01065e-06 2.2061e-05 -0.000122839 4.60366e-05 0.004 664.037 -2.36566 
163 1 1 0.0311565 -0.0339183 0.0111114 0 0 0 -7.00055e-08 -3.32242e-07 -3.09365e-07 -4.31669e-07 1.98995e-07 5.24397e-07 -1.21525e-05 -3.36865e-05 3.79893e-05 0.004 740.049 -2.8546 
214 1 1 -0.0375015 -0.0268265 0.010714 0 0 0 -7.35304e-07 -2.60485e-07 -6.43921e-07 -3.54056e-07 -3.70576e-08 -1.43524e-07 1.22953e-05 0.000113475 1.95585e-05 0.004 339.299 2.5433 
210 1 1 0.0364694 -0.0280971 0.0111135 0 0 0 -1.6799e-07 -2.90525e-07 -2.0681e-07 -4.10251e-07 6.17366e-08 5.39239e-07 -2.52887e-07 -4.50412e-05 3.37629e-05 0.004 761.971 -2.50685 
108 1 1 -0.0260915 -0.0246404 0.0109305 0 0 0 -1.67537e-06 -6.12676e-07 -1.45687e-06 -8.57314e-07 -5.55638e-08 -1.47297e-07 -3.45519e-05 -7.69381e-05 2.07089e-05 0.004 366.719 2.78575 
40 1 1 -0.0055111 -0.0238697 0.0113285 0 0 0 -1.8824e-06 -5.30862e-07 -1.23362e-06 -1.49518e-06 3.08107e-07 7.3258e-07 0.000145442 -5.91242e-05 -9.1835e-05 0.004 497.373 1.11654 
55 1 1 0.00236211 -0.0232851 0.0108248 0 0 0 -1.9187e-06 -6.84934e-07 -9.35731e-07 -1.63947e-06 3.74033e-07 9.80395e-07 6.27299e-05 -2.87637e-05 5.51126e-05 0.004 573.485 -0.535487 
91 1 1 0.0120918 -0.0243837 0.0101856 0 0 0 -1.56875e-06 -7.28484e-07 -6.55719e-07 -1.40162e-06 2.61536e-07 1.17004e-06 9.29103e-05 -0.000127588 0.000110477 0.004 648.524 -2.09501 
112 1 1 0.0192794 -0.0205361 0.0105073 0 0 0 -1.50931e-06 -8.68896e-07 -1.46602e-07 -1.51353e-06 -3.77699e-08 1.92018e-06 9.39463e-05 -0.00012547 -9.27186e-06 0.004 694.309 -2.68261 
178 1 1 0.0318658 -0.0225254 0.0144788 0 0 0 -6.65993e-07 -7.68299e-07 -3.09638e-07 -1.29526e-06 -1.69964e-07 1.34312e-06 7.27697e-05 -1.62242e-05 -3.35019e-05 0.004 756.353 -2.59545 
131 1 1 0.0407765 -0.0214683 0.0110513 0 0 0 -2.57788e-07 -2.103e-07 -8.12778e-08 -4.65998e-07 7.74975e-08 4.88316e-07 5.62881e-06 -3.61833e-05 5.27356e-05 0.004 773.34 -2.17491 
160 1 1 -0.0414721 -0.0199398 0.0108131 0 0 0 -5.79811e-07 -2.0558e-08 -2.88493e-07 -2.80493e-07 3.23344e-08 -1.31183e-07 1.08356e-05 -6.48967e-05 -3.65177e-05 0.004 324.943 2.09749 
43 1 1 -0.0361086 -0.0151005 0.0142598 0 0 0 -1.5152e-06 -1.18838e-07 -9.40629e-07 -7.63403e-07 1.19539e-07 -4.67261e-07 9.91027e-06 -6.23816e-05 -8.36879e-05 0.004 332.979 2.1884 
4 1 1 -0.0270342 -0.0151184 0.010074 0 0 0 -2.12434e-06 -3.48681e-07 -1.07074e-06 -1.19195e-06 2.89078e-08 -1.52968e-07 0.000133716 1.40925e-05 2.95938e-05 0.004 361.057 2.69527 
104 1 1 -0.020301 -0.0192302 0.0111977 0 0 0 -2.2733e-06 -3.72811e-07 -1.44047e-06 -1.24012e-06 1.42441e-07 -9.52053e-08 -2.01736e-05 -0.000105915 7.26433e-05 0.004 390.194 2.71011 
20 1 1 -0.00745478 -0.0162218 0.0110955 0 0 0 -2.51079e-06 -8.02575e-07 -1.1808e-06 -1.69854e-06 1.42718e-07 5.85354e-07 -2.51168e-05 -0.000226163 0.000181865 0.004 490.267 1.12444 
45 1 1 0.000825089 -0.0164513 0.0146047 0 0 0 -3.09568e-06 -1.09822e-06 -8.62284e-07 -2.1486e-06 1.81635e-07 1.42029e-06 4.69354e-05 -0.000136184 9.95015e-05 0.004 556.891 -0.219947 
159 1 1 0.00795161 -0.0177076 0.011347 0 0 0 -2.14359e-06 -9.7036e-07 -5.83138e-07 -1.62151e-06 2.3007e-07 1.49566e-06 8.67554e-05 -9.26478e-05 -6.65384e-05 0.004 625.849 -1.63558 
136 1 1 0.0347931 -0.0163371 0.0104655 0 0 0 -7.91293e-07 -7.18363e-07 3.11898e-08 -1.20885e-06 -2.06455e-07 1.46274e-06 1.34209e-05 6.27807e-05 7.56497e-05 0.004 764.307 -2.38311 
177 1 1 -0.0443274 -0.0125289 0.0108104 0 0 0 -4.4844e-07 5.12926e-08 -1.44936e-07 -2.61792e-07 6.58174e-08 -1.92258e-07 1.39834e-05 -1.3423e-05 8.17119e-06 0.004 319.41 1.82285 
139 1 1 -0.0168209 -0.0121092 0.0110439 0 0 0 -2.49722e-06 -4.88386e-07 -1.18722e-06 -1.40466e-06 1.0905e-07 -4.90772e-08 0.000140129 -7.54215e-05 -8.73199e-05 0.004 408.893 2.37782 
211 1 1 -0.00209537 -0.0104148 0.0103075 0 0 0 -2.67798e-06 -9.75097e-07 -5.4671e-07 -1.49589e-06 -1.59654e-07 9.39127e-07 5.05983e-06 -0.00013692 -0.000103088 0.004 530.72 0.289848 
54 1 1 0.0149155 -0.0138957 0.0108308 0 0 0 -1.76579e-06 -1.13022e-06 -2.34874e-07 -1.52223e-06 -9.61334e-08 1.31572e-06 1.84369e-08 -8.18595e-05 -2.12811e-05 0.004 676.684 -2.51861 
84 1 1 0.023272 -0.0118009 0.0106602 0 0 0 -1.41591e-06 -1.18584e-06 4.42099e-08 -1.64702e-06 -4.77778e-07 1.61417e-06 0.000105583 -0.000235032 2.19522e-05 0.004 726.631 -2.75016 
180 1 1 0.0438204 -0.0140997 0.0110465 0 0 0 -2.58626e-07 -1.82068e-07 1.70717e-07 -4.29796e-07 3.89516e-08 4.85771e-07 3.91839e-05 -2.414e-05 1.07803e-05 0.004 782.025 -1.83032 
103 1 1 0.0174441 -0.0063656 0.0105707 0 0 0 -1.64027e-06 -1.37662e-06 1.38973e-07 -1.59001e-06 -5.12401e-07 1.35617e-06 0.000142414 -7.95567e-05 -3.76868e-06 0.004 694.706 -2.59997 
156 1 1 0.0308891 -0.00946111 0.0106299 0 0 0 -1.05932e-06 -1.01951e-06 3.87125e-07 -1.39103e-06 -5.19199e-07 1.82874e-06 3.5482e-05 8.10625e-05 -3.71978e-06 0.004 751.892 -2.55592 
197 1 1 -0.045783 -0.0047112 0.0107571 0 0 0 -3.37989e-07 2.18002e-08 1.197e-08 -3.44704e-07 3.75562e-08 -2.84971e-07 3.23595e-06 -2.00883e-05 8.95121e-07 0.004 315.392 1.61959 
87 1 1 -0.0386059 -0.00381154 0.0141381 0 0 0 -6.90003e-07 3.82167e-07 3.87415e-08 -5.75804e-07 9.4131e-08 -4.98848e-07 -8.24477e-05 5.84084e-05 7.41869e-06 0.004 322.011 1.83234 
130 1 1 -0.0313597 -0.00387383 0.0107775 0 0 0 -1.6395e-06 2.64302e-07 -1.40559e-07 -4.42702e-07 1.06393e-07 -4.94448e-07 -0.000108509 -9.86216e-05 2.6785e-05 0.004 339.653 2.23043 
604 1 1 -0.0224595 -0.000300852 0.0110796 0 0 0 -2.68146e-06 -4.44441e-07 -1.04471e-06 -1.10964e-06 1.97803e-07 -6.90517e-07 0.000136706 -0.00018966 -8.70767e-06 0.004 383.81 2.36056 
146 1 1 -0.0155078 -0.00400725 0.0103913 0 0 0 -2.57161e-06 -7.27294e-07 -8.36022e-07 -1.19189e-06 3.67556e-08 -2.33558e-07 9.2847e-05 -0.000118198 -0.000100291 0.004 426.791 1.99623 
57 1 1 -0.00517521 -0.00310604 0.0111954 0 0 0 -2.68207e-06 -1.13449e-06 -5.29403e-07 -1.46854e-06 -3.57964e-07 5.70272e-07 4.82721e-05 -0.000163796 -1.14178e-05 0.004 512.038 0.666469 
493 1 1 0.0116957 -0.00087502 0.0103666 0 0 0 -1.84822e-06 -1.53594e-06 2.45095e-07 -1.56417e-06 -7.04202e-07 1.16457e-06 -5.12685e-05 -0.000127965 -6.82314e-05 0.004 658.556 -2.12085 
31 1 1 0.0250484 -0.00405415 0.0104601 0 0 0 -1.36009e-06 -1.28112e-06 5.69091e-07 -1.41832e-06 -5.646e-07 1.64984e-06 3.90314e-05 -0.000124375 8.30676e-06 0.004 729.577 -2.64384 
588 1 1 0.0325999 -0.00174523 0.010543 0 0 0 -9.79086e-07 -1.06853e-06 7.85706e-07 -1.04814e-06 -6.42748e-07 1.77195e-06 8.43782e-05 1.8023e-05 2.27054e-05 0.004 753.687 -2.42893 
63 1 1 0.045924 -0.00327879 0.0119253 0 0 0 -4.90736e-07 -2.82314e-07 3.24081e-07 -5.48926e-07 -1.26039e-07 6.43717e-07 9.43248e-06 5.14373e-05 4.22035e-06 0.004 782.759 -1.73984 
107 1 1 -0.00850633 -0.045273 0.017677 0 0 0 -5.42592e-07 -4.18944e-07 -7.48938e-07 -6.42975e-07 2.67733e-07 6.14278e-08 -7.67232e-05 6.92962e-05 8.4582e-05 0.004 487.346 1.49818 
222 1 1 -0.00141959 -0.0418101 0.0171129 0 0 0 -8.01708e-07 -6.11092e-07 -1.41044e-06 -1.11876e-06 6.46118e-07 7.09328e-07 7.92026e-05 6.54191e-05 -7.84297e-05 0.004 542.109 0.235283 
142 1 1 0.00615864 -0.0401388 0.0154212 0 0 0 -7.9286e-07 -7.40425e-07 -1.3874e-06 -9.81712e-07 4.44348e-07 9.90169e-07 9.0182e-05 -2.61467e-05 3.43656e-05 0.004 593.991 -0.998306 
172 1 1 0.0116014 -0.0446446 0.0189547 0 0 0 -5.51895e-07 -6.0864e-07 -9.81004e-07 -7.50831e-07 3.26925e-07 7.29877e-07 -0.000117738 -0.000104327 0.000155526 0.004 627.823 -1.78642 
109 1 1 0.0204197 -0.0412797 0.0183142 0 0 0 -3.70598e-07 -2.24168e-07 -4.62598e-07 -5.90634e-07 -6.44085e-08 4.6055e-07 -2.6486e-05 6.71336e-06 5.71104e-05 0.004 688.384 -2.97779 
150 1 1 -0.0273271 -0.0370832 0.0158763 0 0 0 -8.14123e-07 -1.89974e-07 -6.85456e-07 -4.25164e-07 3.8952e-08 -7.85808e-08 -4.74221e-05 1.34222e-06 3.33462e-05 0.004 372.989 3.04297 
38 1 1 -0.0197787 -0.0373719 0.0182824 0 0 0 -8.95925e-07 -3.30829e-07 -1.64128e-06 -8.96772e-07 1.56234e-07 2.87773e-07 -8.12024e-05 0.000246375 -2.8137e-05 0.004 404.44 2.85646 
199 1 1 -0.0118545 -0.0370266 0.01765 0 0 0 -1.04703e-06 -8.39417e-07 -2.22098e-06 -1.06208e-06 5.86229e-07 5.93366e-07 5.55191e-05 -0.000208222 -7.4411e-05 0.004 439.929 2.40668 
93 1 1 0.0137643 -0.0377759 0.0156807 0 0 0 -1.0049e-06 -6.01215e-07 -1.09699e-06 -1.0938e-06 3.97455e-07 1.10625e-06 1.31752e-06 -0.000182427 0.000136606 0.004 648.521 -2.17031 
64 1 1 0.0280177 -0.0365092 0.0179286 0 0 0 -2.6924e-07 -2.84222e-07 -5.5062e-07 -8.82715e-07 -4.69682e-08 5.67217e-07 -7.12287e-05 -9.6482e-05 0.000103907 0.004 731.279 -3.14114 
22 1 1 -0.0327402 -0.032422 0.0194567 0 0 0 -9.71123e-07 -3.27233e-07 -8.85235e-07 -5.64364e-07 -1.12326e-08 -1.23856e-07 -4.80576e-05 8.49767e-05 9.01785e-05 0.004 351.41 2.80037 
174 1 1 -0.0224319 -0.0302105 0.0162617 0 0 0 -1.74315e-06 -5.08314e-07 -1.62358e-06 -1.14594e-06 7.34682e-08 6.66933e-08 -1.15089e-05 3.83803e-05 0.000140098 0.004 389.571 2.87182 
32 1 1 -0.00428308 -0.0343967 0.0166775 0 0 0 -1.34876e-06 -6.27052e-07 -2.18171e-06 -1.50377e-06 6.36326e-07 9.15767e-07 -0.000166899 -0.000186279 0.000111362 0.004 515.311 0.829525 
128 1 1 0.00347462 -0.033132 0.0179959 0 0 0 -1.7511e-06 -9.43469e-07 -1.88997e-06 -1.80583e-06 6.26781e-07 1.46413e-06 1.40621e-05 -0.000130044 -9.50231e-06 0.004 570.979 -0.501073 
88 1 1 0.0113687 -0.0304834 0.0177099 0 0 0 -2.12536e-06 -1.12516e-06 -1.42983e-06 -2.0134e-06 4.60227e-07 1.63221e-06 6.88972e-05 -8.62237e-05 8.04497e-05 0.004 645.707 -2.04988 
137 1 1 0.0208047 -0.0338186 0.0156333 0 0 0 -8.69237e-07 -5.40061e-07 -6.51825e-07 -1.00009e-06 1.62175e-07 1.14157e-06 -3.86981e-05 -0.000166096 0.000153409 0.004 703.134 -3.01093 
154 1 1 0.0339821 -0.0311387 0.0180551 0 0 0 -3.01836e-07 -4.02121e-07 -3.76788e-07 -6.02013e-07 1.30814e-07 6.91109e-07 3.72654e-06 -5.34236e-05 7.16395e-05 0.004 757.96 -2.57735 
52 1 1 -0.031991 -0.0252343 0.0161625 0 0 0 -1.60921e-06 -4.96007e-07 -1.62312e-06 -8.97262e-07 -3.62129e-08 -2.33563e-07 -7.93449e-05 -3.32781e-05 3.62648e-05 0.004 347.851 2.58974 
80 1 1 -0.00960095 -0.0265066 0.0175805 0 0 0 -2.90651e-06 -5.89783e-07 -2.51507e-06 -1.90868e-06 3.57868e-07 1.09908e-06 0.000117832 -0.000107274 -0.000100126 0.004 464.787 1.71566 
125 1 1 -0.00117359 -0.0267001 0.0173742 0 0 0 -2.54011e-06 -1.21807e-06 -1.72286e-06 -2.17016e-06 4.94413e-07 1.36456e-06 0.000142359 -6.90703e-05 0.000166283 0.004 538.362 0.233764 
72 1 1 0.0179273 -0.0264316 0.015637 0 0 0 -2.06417e-06 -1.0117e-06 -8.32104e-07 -1.98927e-06 3.58616e-07 2.27291e-06 6.07597e-05 -0.000116687 9.78646e-05 0.004 686.247 -2.70594 
34 1 1 0.0269648 -0.0287251 0.0154182 0 0 0 -5.1461e-07 -7.97736e-07 -6.896e-07 -1.15309e-06 -1.69267e-08 1.17207e-06 -1.36978e-05 -3.51104e-05 4.98527e-05 0.004 738.741 -2.76476 
218 1 1 -0.0395968 -0.0234663 0.0176916 0 0 0 -9.04592e-07 -2.92257e-07 -8.17649e-07 -5.23969e-07 4.03035e-08 -1.93295e-07 6.75908e-05 0.000127937 -9.18736e-05 0.004 328.4 2.17775 
70 1 1 -0.0247175 -0.0230258 0.0185786 0 0 0 -2.59819e-06 -5.67059e-07 -2.12427e-06 -1.53203e-06 9.52308e-08 -7.81652e-08 -5.7128e-05 -2.04055e-05 3.1987e-05 0.004 371.402 2.63067 
132 1 1 -0.0171323 -0.0242634 0.0164744 0 0 0 -2.61849e-06 -2.96691e-07 -2.03035e-06 -1.56266e-06 2.13713e-07 3.59548e-07 -8.53429e-06 2.63351e-05 0.000117809 0.004 408.409 2.53305 
196 1 1 0.00716655 -0.023789 0.0170601 0 0 0 -2.80087e-06 -1.39495e-06 -1.20542e-06 -2.84207e-06 4.53505e-07 2.18567e-06 0.000150433 -0.000121847 1.00344e-05 0.004 622.195 -1.53378 
362 1 1 0.0243874 -0.0214292 0.0170617 0 0 0 -1.87918e-06 -1.60211e-06 -1.04194e-06 -2.2761e-06 -2.42982e-07 2.09621e-06 8.47604e-05 -0.000260606 0.000258405 0.004 737.792 -2.72676 
49 1 1 0.0387628 -0.0248027 0.0179815 0 0 0 -4.38226e-07 -3.05452e-07 -1.6861e-07 -5.94357e-07 1.20799e-07 6.45422e-07 -6.91685e-06 -3.8641e-05 2.29222e-05 0.004 770.218 -2.28815 
173 1 1 -0.0431191 -0.0163148 0.0177078 0 0 0 -8.35536e-07 2.25966e-08 -4.49189e-07 -4.64262e-07 1.82276e-07 -3.07924e-07 9.85947e-06 9.36925e-05 3.13962e-05 0.004 323.15 1.91285 
50 1 1 -0.0295064 -0.0167659 0.0182812 0 0 0 -2.54257e-06 -4.32468e-07 -1.51511e-06 -1.32325e-06 5.42375e-08 -3.33866e-07 9.38988e-05 9.57499e-05 -3.3739e-05 0.004 349.108 2.36549 
202 1 1 -0.0134618 -0.0172167 0.0161107 0 0 0 -3.27498e-06 -9.2691e-07 -2.04735e-06 -1.94168e-06 2.91021e-07 4.89075e-07 5.10877e-05 -3.79354e-05 -0.000162606 0.004 436.65 2.00802 
86 1 1 -0.00524862 -0.0199157 0.0183757 0 0 0 -3.44015e-06 -1.18493e-06 -1.60463e-06 -2.49563e-06 4.00833e-07 1.45579e-06 1.25955e-05 -9.00595e-05 5.48802e-05 0.004 509.153 0.804876 
129 1 1 0.0138597 -0.0196295 0.016286 0 0 0 -2.70455e-06 -1.5392e-06 -6.54219e-07 -2.59181e-06 1.86489e-07 2.23786e-06 6.89945e-05 -5.50404e-05 2.95056e-06 0.004 668.949 -2.30267 
82 1 1 0.0291401 -0.0151359 0.0159324 0 0 0 -1.70779e-06 -1.35838e-06 -7.37544e-08 -2.0738e-06 -3.91306e-07 2.07416e-06 0.000104054 -0.000221301 -1.98305e-05 0.004 752.488 -2.55927 
1 1 1 0.0424683 -0.0178049 0.0178803 0 0 0 -6.01695e-07 -3.75837e-07 1.05773e-07 -7.82378e-07 9.80438e-08 6.5328e-07 6.59301e-05 -3.25899e-05 7.24683e-06 0.004 777.865 -1.97561 
168 1 1 -0.0224798 -0.0136304 0.016417 0 0 0 -3.08773e-06 -6.31265e-07 -1.76754e-06 -1.68444e-06 1.11921e-07 -3.4148e-07 -2.43379e-06 -5.67802e-05 2.73075e-05 0.004 381.488 2.52223 
121 1 1 -0.00514893 -0.0120184 0.0174569 0 0 0 -3.83112e-06 -1.24882e-06 -9.1515e-07 -2.4583e-06 3.15322e-07 1.28455e-06 0.000198094 -5.76919e-05 -7.12467e-05 0.004 515.704 0.599068 
28 1 1 0.00814314 -0.0139813 0.0183177 0 0 0 -3.82323e-06 -1.91261e-06 -5.8484e-07 -2.89024e-06 3.16403e-07 2.78478e-06 4.30261e-05 -0.000295266 5.75885e-05 0.004 630.196 -1.69953 