ITEM: TIMESTEP
33600
ITEM: NUMBER OF ATOMS
890
ITEM: BOX BOUNDS mm mm mm
-0.05 0.05
-0.05 0.05
0 0.15
ITEM: ATOMS id type type x y z ix iy iz vx vy vz fx fy fz omegax omegay omegaz radius f_Temp[0] f_heatFlux[0] 
59 1 1 -0.00071555 -0.0460982 0.00395598 0 0 0 -6.24886e-07 7.02763e-07 -2.9667e-07 6.19774e-07 -1.46255e-06 -9.43351e-07 -0.000140222 -2.89801e-05 0.000178962 0.004 535.508 0.631741 
170 1 1 -0.0173498 -0.0426414 0.00397302 0 0 0 -1.17822e-06 1.38163e-07 -3.40693e-07 5.426e-07 -7.66125e-07 -1.9181e-07 0.00013403 4.70086e-05 9.04158e-05 0.004 391.902 4.74884 
15 1 1 -0.00975016 -0.0449638 0.00393397 0 0 0 -7.41211e-07 -3.41725e-07 -1.0239e-06 9.17187e-07 -1.68226e-06 -1.20581e-06 9.33064e-05 2.03829e-06 -0.000132113 0.004 429.748 4.27152 
116 1 1 0.00648761 -0.0428197 0.0039587 0 0 0 -3.87344e-07 6.44647e-07 -1.89688e-06 9.03607e-07 -1.81042e-06 -8.28909e-07 -0.000643963 8.82342e-06 -0.000260925 0.004 619.245 -2.28519 
158 1 1 0.0143627 -0.0437625 0.00389981 0 0 0 3.08404e-07 -6.07765e-07 -1.67631e-06 6.15829e-07 -7.80715e-07 -7.59104e-07 0.000137989 7.60631e-05 0.000108419 0.004 674.617 -3.84156 
98 1 1 0.0216779 -0.0406527 0.00394262 0 0 0 -1.65655e-07 1.14472e-07 -9.90125e-07 4.76248e-07 -1.10311e-07 -6.93566e-07 -3.00866e-05 -3.79514e-05 3.54455e-05 0.004 719.569 -4.32736 
169 1 1 -0.0244315 -0.0390659 0.00391427 0 0 0 -1.52388e-06 5.16022e-07 3.85205e-07 -3.0193e-07 -1.28858e-06 -9.19041e-07 2.67448e-05 -0.000177676 0.000170094 0.004 353.472 4.22712 
89 1 1 -0.011812 -0.0369235 0.00395463 0 0 0 -2.45805e-06 6.95232e-07 -1.02871e-06 9.814e-07 -1.64706e-06 -9.12208e-07 7.874e-05 0.00020215 -0.000152542 0.004 422.833 3.70665 
152 1 1 -0.00418343 -0.0390223 0.00390526 0 0 0 -2.53578e-06 6.48225e-07 -2.24602e-06 1.56475e-06 -2.46751e-06 -2.40935e-06 -0.000223993 -0.000188212 0.000310698 0.004 495.686 1.8229 
23 1 1 0.0153483 -0.035882 0.00391131 0 0 0 -5.36283e-07 4.70409e-07 -2.61095e-06 5.84503e-07 -9.71587e-07 -1.88465e-06 -0.000327772 -0.000200939 9.34635e-06 0.004 687.019 -4.02924 
118 1 1 -0.0307533 -0.0342397 0.00392725 0 0 0 -1.82709e-06 8.27105e-07 1.70009e-07 -3.1021e-07 -6.55261e-07 -3.09407e-07 -0.000198145 -0.000358035 0.000160999 0.004 326.968 3.29909 
30 1 1 -0.0188787 -0.0333717 0.00395276 0 0 0 -3.58727e-06 1.75824e-06 5.29937e-07 -4.24508e-07 -2.6783e-06 -1.32735e-06 -0.000133676 -0.000365254 0.000123051 0.004 368.154 4.12305 
215 1 1 -0.00603632 -0.0313237 0.00390663 0 0 0 -3.14764e-06 1.42844e-08 -2.23917e-06 1.38579e-06 -4.14859e-06 -2.33043e-06 5.14434e-05 -0.000171995 -7.666e-05 0.004 470.141 2.55756 
74 1 1 0.0018414 -0.0338192 0.00390682 0 0 0 -2.47187e-06 1.65023e-06 -3.13371e-06 1.22984e-06 -3.26378e-06 -1.97971e-06 -0.000300259 -0.000443778 -0.000100905 0.004 558.287 -0.179043 
24 1 1 0.00917856 -0.0308341 0.00392036 0 0 0 -1.36973e-06 1.25976e-06 -3.99647e-06 4.78957e-07 -1.91431e-06 -2.13162e-06 -0.000111156 -0.00024116 -5.31752e-05 0.004 643.875 -2.87962 
198 1 1 0.0259423 -0.0339524 0.00395552 0 0 0 -4.61644e-07 1.25459e-06 -2.16209e-06 5.8672e-07 7.89547e-07 -1.99337e-06 -0.000652116 -0.000378889 -1.35848e-05 0.004 751.762 -3.9513 
161 1 1 0.0335301 -0.0316074 0.00391358 0 0 0 2.9479e-07 4.63488e-07 -1.45711e-06 3.53265e-07 5.51232e-07 -1.12744e-06 -0.000142033 -6.44731e-05 -7.09068e-05 0.004 773.014 -3.08685 
8 1 1 -0.0322699 -0.0264156 0.00398406 0 0 0 -2.72873e-06 8.61355e-07 1.66535e-07 -6.6684e-08 -1.04779e-06 -7.02158e-07 0.000167568 0.000132169 3.42884e-05 0.004 321.648 2.80011 
12 1 1 -0.0244143 -0.0276959 0.0038644 0 0 0 -4.53176e-06 1.16952e-06 5.36359e-07 -6.53472e-07 -2.8074e-06 -1.21507e-06 0.000197725 -0.000628771 0.000299118 0.004 343.505 3.73869 
188 1 1 -0.0131742 -0.0277762 0.0039659 0 0 0 -4.63363e-06 1.98235e-06 6.99674e-07 -2.87578e-07 -3.50418e-06 -6.42218e-07 -0.000199392 -0.000309522 -1.40258e-05 0.004 388.568 4.23137 
77 1 1 -0.000100233 -0.0260808 0.00389418 0 0 0 -5.13688e-06 1.04254e-06 -3.01896e-06 -1.96599e-06 -4.12279e-06 -1.61566e-06 -0.000289513 -0.000998997 0.000590502 0.004 540.719 0.349929 
113 1 1 0.0165643 -0.0280203 0.00388661 0 0 0 -9.25098e-07 1.25677e-06 -2.97155e-06 5.65044e-07 -4.2654e-07 -1.84694e-06 2.40879e-05 -0.000182097 6.46073e-05 0.004 704.158 -3.89499 
183 1 1 0.0384541 -0.0253742 0.00393848 0 0 0 5.63146e-07 2.48325e-07 -1.26565e-06 3.80421e-07 2.17522e-07 -9.50463e-07 1.92377e-05 -0.000100871 -7.69224e-05 0.004 785.558 -2.15998 
162 1 1 -0.0396311 -0.023418 0.00390783 0 0 0 -9.54097e-07 1.48687e-06 1.34023e-06 3.91812e-07 -3.87389e-07 -8.83484e-08 -0.000247617 -0.00017899 -8.68068e-06 0.004 310.548 1.78421 
53 1 1 -0.027206 -0.0202486 0.00395169 0 0 0 -3.27605e-06 1.65123e-06 1.59806e-06 5.59648e-07 -2.70877e-06 -4.69276e-07 -0.00016418 -0.000601522 -0.00077487 0.004 329.966 3.18942 
148 1 1 -0.0187584 -0.0220642 0.00393818 0 0 0 -5.59288e-06 2.80833e-06 1.50408e-07 -9.22274e-07 -3.67049e-06 -2.02124e-07 -0.000690516 -0.000805211 -0.000116916 0.004 364.574 4.35095 
195 1 1 -0.00727817 -0.02155 0.00394569 0 0 0 -2.21997e-06 2.85591e-06 -1.5681e-06 1.33491e-06 -2.99638e-06 -2.37473e-06 -0.00035188 -0.000396046 0.00143922 0.004 451.028 3.5503 
179 1 1 0.00736629 -0.0231031 0.00394276 0 0 0 -2.67796e-06 1.08078e-06 -3.57732e-06 -1.19415e-07 -2.48465e-06 -2.10743e-06 3.22551e-05 -0.000186784 0.00037462 0.004 643.281 -3.01429 
95 1 1 0.0148506 -0.02031 0.00393214 0 0 0 -1.33173e-06 1.89762e-06 -3.7345e-06 -3.8849e-07 4.95696e-07 -3.37651e-06 -0.000149119 2.05119e-05 4.81249e-05 0.004 699.926 -3.87364 
76 1 1 0.0230028 -0.0233057 0.00397475 0 0 0 2.58776e-07 2.00879e-06 -2.32993e-06 2.71352e-07 1.69245e-06 -2.08234e-06 -0.000328924 0.0003225 0.000115369 0.004 756.333 -3.70443 
100 1 1 0.0325586 -0.0200895 0.00388598 0 0 0 1.29651e-06 1.6081e-06 -2.67659e-06 1.18264e-06 1.22603e-06 -2.66174e-06 -0.000400728 0.000254691 -0.000206074 0.004 779.535 -2.57392 
65 1 1 -0.0430742 -0.0162802 0.00393146 0 0 0 -4.70619e-07 1.53145e-06 1.04484e-06 2.21525e-07 -3.47041e-07 1.0623e-07 -0.000114431 3.71038e-05 0.000205603 0.004 306.479 1.26365 
102 1 1 -0.0351583 -0.0155178 0.00394451 0 0 0 -2.45999e-06 4.4726e-06 3.30249e-06 9.56325e-07 -2.32827e-06 -7.42243e-08 -0.00127059 -0.000693121 0.000109993 0.004 313.135 1.93788 
213 1 1 -0.0132588 -0.0162738 0.00397366 0 0 0 -3.94714e-06 9.08095e-07 -6.52615e-07 -1.21517e-06 -2.76879e-06 -4.44424e-07 0.000235975 -0.000455053 -0.000997606 0.004 391.359 4.54392 
10 1 1 0.00114846 -0.0182523 0.00475007 0 0 0 -5.31085e-06 1.36484e-06 -2.31898e-06 -1.64038e-06 -3.89305e-06 -2.45221e-06 0.000609549 3.14216e-05 -0.000475334 0.004 568.811 -0.700534 
5 1 1 0.00879791 -0.0152553 0.00390319 0 0 0 -1.62065e-06 1.81994e-06 -3.15161e-06 -1.28438e-06 -1.02681e-06 -3.17444e-06 6.52196e-05 -0.00012747 -0.000143777 0.004 653.815 -3.15066 
96 1 1 0.0211693 -0.0155242 0.00395655 0 0 0 -2.30246e-07 1.96551e-06 -2.78964e-06 -4.77729e-07 2.62821e-06 -3.36203e-06 -0.000326739 -0.000123811 -0.000153229 0.004 749.665 -3.66983 
167 1 1 0.0421923 -0.0183683 0.00392113 0 0 0 7.71356e-07 3.03387e-07 -7.16974e-07 7.22713e-07 2.69151e-07 -6.63772e-07 5.04898e-05 0.000126584 5.79698e-05 0.004 793.559 -1.27682 
124 1 1 -0.029011 -0.0104716 0.00394793 0 0 0 -9.04384e-07 1.66905e-06 8.172e-07 2.07367e-06 -3.26861e-06 -9.56196e-07 -0.000314069 -0.000184643 -0.000728371 0.004 326.742 2.83428 
220 1 1 -0.0217759 -0.0144543 0.00398046 0 0 0 -4.38964e-07 1.84263e-07 1.16486e-06 5.79871e-07 -2.81065e-06 -1.00056e-06 -0.000176779 0.00010507 0.000120304 0.004 349.157 3.62464 
144 1 1 -0.00535517 -0.0138038 0.00388186 0 0 0 -3.68281e-06 2.80059e-06 -7.35492e-07 -1.4736e-06 -3.65874e-06 -4.29985e-06 -0.000210693 -0.000527303 -0.000355269 0.004 497.775 1.56766 
26 1 1 0.00255573 -0.0104629 0.00390573 0 0 0 -2.0929e-06 1.88681e-06 -1.53868e-06 -1.60814e-06 -2.47539e-06 -3.76393e-06 -0.000207795 1.25385e-05 1.13485e-05 0.004 574.565 -0.92288 
194 1 1 0.0287352 -0.013103 0.00393084 0 0 0 4.44541e-07 2.51673e-06 -2.84964e-06 4.10338e-07 2.22263e-06 -3.70604e-06 -0.000332895 -8.57503e-06 0.000370475 0.004 774.655 -2.83781 
37 1 1 0.03667 -0.0122308 0.00393308 0 0 0 2.61092e-06 2.10992e-06 -3.85221e-06 2.56089e-06 1.14622e-06 -3.84515e-06 -0.000303512 0.000593702 -0.000485765 0.004 790.259 -1.64131 
219 1 1 0.0447285 -0.0108715 0.00390888 0 0 0 2.28211e-07 6.46498e-07 -2.55424e-07 5.85768e-07 2.98075e-07 -4.70649e-07 -7.0573e-06 3.0601e-05 5.20975e-05 0.004 796.49 -0.852748 
636 1 1 -0.0451997 -0.00864274 0.00391771 0 0 0 4.40772e-07 1.13972e-06 1.47277e-06 2.75341e-07 -6.14381e-07 6.06946e-08 -2.32435e-05 3.22709e-05 -0.000334539 0.004 303.542 0.830125 
39 1 1 -0.0161466 -0.00885106 0.00388994 0 0 0 -1.91899e-06 1.45941e-06 1.46141e-06 -1.46189e-06 -2.68956e-06 -1.50782e-06 -2.35166e-05 -0.00032618 0.000311523 0.004 389.676 3.58135 
171 1 1 -0.00395984 -0.00597825 0.00392051 0 0 0 -1.9286e-06 2.19623e-06 -8.41345e-08 -2.24145e-06 -3.35979e-06 -3.08042e-06 -0.000112047 -6.35321e-05 -0.000120282 0.004 504.228 1.24825 
200 1 1 0.0146298 -0.00986519 0.00396382 0 0 0 -1.39069e-06 2.25287e-06 -1.97581e-06 -7.26784e-07 1.61719e-06 -2.39284e-06 -0.000175913 -0.000106001 0.000137011 0.004 707.209 -4.09399 
21 1 1 0.022252 -0.00762162 0.00394341 0 0 0 -4.75972e-07 2.2952e-06 -3.23845e-06 -6.22327e-07 3.47913e-06 -4.47424e-06 -0.000362214 0.000139469 -1.72609e-05 0.004 752.616 -3.7157 
17 1 1 0.0298456 -0.00520717 0.00394879 0 0 0 -1.54903e-06 3.0034e-06 -2.62984e-06 -6.11836e-07 2.86161e-06 -4.477e-06 -0.00036629 -0.000399625 0.000246749 0.004 774.917 -2.93207 
477 1 1 -0.0445832 -0.000710811 0.00396286 0 0 0 1.48289e-06 1.30754e-06 1.68084e-06 -9.5246e-08 -6.97219e-07 2.30221e-08 -0.000202398 0.000412151 0.000384397 0.004 303.437 0.774054 
140 1 1 -0.0352672 -0.00371826 0.0038725 0 0 0 -4.44303e-07 2.25228e-06 3.24545e-06 -1.85129e-07 -1.74608e-06 1.00703e-07 -0.000201694 -0.000152646 -0.00114 0.004 315.068 1.89713 
119 1 1 -0.0273891 -0.00269832 0.00396393 0 0 0 -5.17415e-07 -1.45104e-07 3.29474e-06 -3.39522e-07 -2.44908e-06 3.28818e-07 0.000431968 0.000161985 0.000624336 0.004 334.246 2.9095 
207 1 1 -0.0194911 -0.00168727 0.00389517 0 0 0 -1.48311e-06 1.30165e-06 3.9037e-06 -1.01957e-06 -2.64461e-06 -9.01407e-07 0.000166513 -0.000142781 -0.00024697 0.004 369.538 3.51199 
69 1 1 -0.0111573 -0.00264549 0.00393013 0 0 0 -1.81723e-06 1.40286e-06 1.77022e-06 -1.37059e-06 -2.38361e-06 -1.17077e-06 8.98131e-06 -5.10435e-05 -0.000104563 0.004 430.965 3.07675 
221 1 1 0.00874803 -0.00448986 0.00393206 0 0 0 -1.87479e-06 2.44441e-06 -1.64049e-06 -1.66625e-06 4.2346e-07 -3.54202e-06 -0.000539941 -0.000189411 -0.000113225 0.004 665.512 -3.58018 
457 1 1 0.0163505 -0.00208059 0.00395933 0 0 0 -1.81696e-06 1.99943e-06 -1.77682e-06 -1.10334e-06 2.43172e-06 -3.19738e-06 -6.45225e-05 -0.000333285 -7.84355e-05 0.004 719.943 -4.27027 
155 1 1 0.0378912 -0.00224685 0.00393696 0 0 0 2.116e-06 2.25533e-06 -2.49857e-06 2.91007e-06 8.48258e-07 -3.87194e-06 -5.77276e-06 0.000738641 0.00135751 0.004 790.929 -1.48171 
665 1 1 0.0459183 -0.00307627 0.00394261 0 0 0 -1.04742e-07 1.09851e-06 -3.61205e-07 8.65911e-07 7.69393e-07 -8.39447e-07 -0.00023776 -7.09501e-05 -4.89518e-05 0.004 796.354 -0.848399 
120 1 1 0.00918485 -0.0371091 0.00876939 0 0 0 -2.81281e-06 1.86468e-06 -6.38987e-06 1.90584e-06 -3.36563e-06 -2.20128e-06 -0.00022344 -0.000776803 0.000130627 0.004 646.78 -3.12408 
9 1 1 -0.0247147 -0.033359 0.00937626 0 0 0 -5.3725e-06 1.92999e-06 -9.59261e-09 -1.05922e-06 -3.34023e-06 -1.84223e-06 -0.000432981 -0.00036381 0.000564412 0.004 345.289 3.93799 
101 1 1 -0.0188615 -0.0277191 0.00955152 0 0 0 -8.2965e-06 3.2729e-06 9.55722e-07 -1.23737e-06 -6.69781e-06 -1.36559e-06 0.000112064 -0.000298473 0.000471607 0.004 363.521 4.13974 
48 1 1 0.0221998 -0.0293138 0.00920036 0 0 0 -6.69208e-07 2.03665e-06 -5.70554e-06 1.34881e-06 -3.07705e-07 -4.23984e-06 0.000236331 0.000454743 0.000240054 0.004 739.747 -3.79978 
75 1 1 0.02936 -0.0261745 0.00787426 0 0 0 -7.26295e-08 2.43682e-06 -4.15079e-06 2.19532e-07 2.33517e-06 -3.41374e-06 4.2338e-05 -0.000445495 -0.000288492 0.004 769.573 -3.10672 
46 1 1 -0.0327912 -0.0205809 0.00958354 0 0 0 -4.25947e-06 6.491e-06 6.65802e-06 2.09536e-07 -2.79794e-06 -8.16335e-07 0.000734145 0.00149382 -0.00101507 0.004 320.905 2.55151 
33 1 1 -0.013034 -0.0220248 0.00949574 0 0 0 -6.93098e-06 4.52734e-06 -1.67693e-06 7.04147e-08 -4.56394e-06 -2.57051e-06 -0.000419067 0.000999964 0.000463916 0.004 394.896 4.10839 
11 1 1 0.02689 -0.0187447 0.00924468 0 0 0 3.29816e-07 3.68042e-06 -5.05712e-06 4.4785e-07 3.90421e-06 -5.79038e-06 -0.00016811 -0.000399076 -0.000112457 0.004 765.376 -3.22779 
71 1 1 -0.0372751 -0.00954694 0.00876625 0 0 0 -2.6794e-06 5.43963e-06 4.38435e-06 1.37065e-06 -2.34706e-06 1.11473e-06 0.000221447 0.000523955 -7.5095e-05 0.004 309.752 1.54597 
62 1 1 -0.0228082 -0.0077137 0.00814043 0 0 0 -1.44966e-06 8.78329e-07 2.58642e-06 -9.83578e-07 -4.08982e-06 -1.45383e-06 0.000512622 -0.000288828 -1.18075e-05 0.004 350.263 3.4855 
19 1 1 -0.00970672 -0.00905629 0.00849079 0 0 0 -3.39318e-06 3.83445e-06 1.2323e-06 -2.85387e-06 -6.44816e-06 -4.725e-06 0.000258381 0.00042289 -6.1634e-05 0.004 460.414 2.28972 
187 1 1 0.00796709 -0.00988202 0.00975757 0 0 0 -8.02245e-06 2.2229e-06 -2.35465e-06 -7.60073e-06 -2.18539e-06 -2.71527e-06 0.000754599 -0.00182628 0.000985014 0.004 652 -3.95122 
157 1 1 0.0395816 -0.00751948 0.00963118 0 0 0 3.03169e-06 3.2832e-06 -5.47165e-06 4.82255e-06 1.87629e-06 -6.16872e-06 -0.00023089 -0.001324 -0.000333934 0.004 794.004 -1.18428 
18 1 1 0.00229112 -0.00404898 0.00852653 0 0 0 -1.57071e-06 3.28476e-06 -1.69646e-06 -3.75496e-06 -3.78477e-06 -6.46834e-06 0.000146792 0.000139584 -0.000182258 0.004 572.166 -0.80447 
185 1 1 -0.00531148 -0.045735 0.0104438 0 0 0 -3.0666e-06 -3.40174e-07 -1.44921e-06 1.07702e-06 -2.51172e-06 -2.20124e-06 -7.31391e-05 -0.000705363 0.000477095 0.004 486.782 2.2434 
83 1 1 0.00256735 -0.0459473 0.0112661 0 0 0 -2.69357e-06 5.17927e-07 -5.03041e-06 1.7421e-06 -2.85756e-06 -8.16443e-07 -0.00123611 0.00152503 6.22996e-05 0.004 567.016 -0.686596 
58 1 1 -0.0218568 -0.0405821 0.0112769 0 0 0 -4.29779e-06 2.42565e-06 9.24253e-07 -1.20992e-06 -2.94212e-06 -1.73045e-06 -8.91409e-05 -0.00040642 0.00103719 0.004 358.355 4.31247 
105 1 1 -0.013586 -0.043966 0.0108788 0 0 0 -2.64287e-06 6.34452e-07 -1.62121e-06 4.52632e-06 -2.92541e-06 -1.78718e-06 -0.000463768 -0.000113932 0.000539226 0.004 402.718 5.34207 
223 1 1 0.0103956 -0.0448674 0.0106706 0 0 0 -1.84764e-06 1.55183e-07 -6.35832e-06 1.82917e-06 -2.06077e-06 -5.51905e-07 -0.00112758 -0.00137864 0.000287579 0.004 638.779 -2.96777 
217 1 1 0.0179432 -0.0424253 0.0108281 0 0 0 -5.94268e-08 1.61876e-07 -3.7543e-06 1.40037e-06 -1.0673e-06 -1.55977e-06 -0.000761949 -0.000286136 -0.000184457 0.004 694.048 -4.13145 
6 1 1 -0.0162615 -0.0350311 0.0113114 0 0 0 -7.43562e-06 2.93431e-06 -2.55769e-06 8.12426e-07 -8.02052e-06 -5.54654e-06 -0.000245856 0.00121648 -0.00065123 0.004 386.277 4.20171 
151 1 1 -0.00801309 -0.0382602 0.0108115 0 0 0 -5.22845e-06 1.47318e-07 -3.4187e-06 3.62811e-06 -6.59794e-06 -3.79955e-06 8.31275e-05 -0.000401616 -0.000179837 0.004 451.67 3.26607 
2 1 1 0.000443909 -0.038308 0.010271 0 0 0 -5.13195e-06 1.85282e-06 -6.18458e-06 3.31339e-06 -6.6437e-06 -3.36393e-06 0.00024709 6.55059e-06 -0.000176538 0.004 548.775 0.0817437 
117 1 1 0.0249196 -0.0387267 0.0109177 0 0 0 7.07677e-07 -3.55168e-07 -3.27363e-06 1.26014e-06 -7.09338e-07 -1.58772e-06 -0.000290881 8.55146e-05 -0.000219842 0.004 738.873 -4.11895 
13 1 1 -0.0323455 -0.0327547 0.011537 0 0 0 -2.86292e-06 2.78282e-06 8.29485e-07 -3.62208e-07 -1.77816e-06 -2.3841e-07 -8.96976e-06 0.000251295 -0.00040222 0.004 326.503 3.14764 
193 1 1 -0.0098258 -0.0305005 0.0107686 0 0 0 -9.27693e-06 1.89357e-06 -7.57544e-06 -9.73271e-07 -9.05458e-06 -7.13816e-06 -0.00131655 -0.00133862 0.00102941 0.004 441.704 3.3013 
47 1 1 -0.00133758 -0.0305433 0.0103848 0 0 0 -8.51514e-06 7.81749e-07 -7.75446e-06 -1.39951e-06 -8.79888e-06 -2.89282e-06 0.000276357 -0.000850281 0.000858471 0.004 534.875 0.582492 
153 1 1 0.00656462 -0.0300231 0.0113662 0 0 0 -5.23345e-06 1.80677e-06 -9.94559e-06 5.68689e-07 -5.339e-06 -5.09706e-06 0.00041488 -0.000256126 -0.000237399 0.004 618.244 -2.22779 
41 1 1 0.0148076 -0.0317914 0.0106541 0 0 0 -2.59467e-06 1.3697e-06 -7.49087e-06 1.64907e-06 -2.84782e-06 -4.22016e-06 -0.000101664 -0.000503956 -3.18586e-05 0.004 692.533 -3.99983 
163 1 1 0.0311565 -0.0339183 0.0111114 0 0 0 8.03067e-07 -2.74714e-07 -3.83327e-06 1.18386e-06 -3.43854e-07 -1.96357e-06 -0.000181452 -0.000369773 0.000172713 0.004 768.659 -3.21018 
214 1 1 -0.0375015 -0.0268265 0.010714 0 0 0 -2.85831e-06 3.45794e-06 3.16954e-06 -9.29115e-08 -1.27712e-06 1.04112e-07 0.000524833 -0.000871435 0.0009964 0.004 316.153 2.28202 
210 1 1 0.0364693 -0.0280971 0.0111135 0 0 0 6.2702e-07 3.50628e-07 -3.43267e-06 5.50624e-07 6.39684e-07 -1.95824e-06 -0.000235825 -0.00026302 -2.76563e-06 0.004 784.497 -2.18973 
108 1 1 -0.0260915 -0.0246403 0.0109305 0 0 0 -8.63199e-06 4.35778e-06 2.46308e-06 -1.25143e-06 -6.23944e-06 -6.75613e-07 -0.000922305 -1.03642e-05 8.75815e-05 0.004 337.91 3.37308 
40 1 1 -0.00551113 -0.0238696 0.0113286 0 0 0 -8.87294e-06 2.2571e-06 -5.37368e-06 -1.61692e-06 -8.89073e-06 -4.03682e-06 0.00114414 -0.00105856 -0.00109391 0.004 483.26 2.0953 
55 1 1 0.00236207 -0.0232851 0.0108249 0 0 0 -5.80228e-06 2.2799e-06 -7.10941e-06 -1.46014e-07 -8.46433e-06 -5.80036e-06 -9.84668e-05 0.00161424 0.000418336 0.004 580.086 -0.945071 
91 1 1 0.0120918 -0.0243836 0.0101856 0 0 0 -3.2356e-06 1.67533e-06 -7.15269e-06 4.94213e-07 -3.10703e-06 -5.89036e-06 0.00011878 -3.46521e-05 9.27089e-05 0.004 674.32 -3.71141 
112 1 1 0.0192794 -0.020536 0.0105073 0 0 0 -1.27632e-06 2.8074e-06 -8.91273e-06 -4.4532e-07 1.96273e-06 -9.36545e-06 0.000661949 -0.00039464 0.000264255 0.004 725.305 -4.13902 
178 1 1 0.0318658 -0.0225253 0.0144789 0 0 0 2.1028e-06 2.74438e-06 -8.04794e-06 1.91744e-06 2.45111e-06 -6.0554e-06 -0.000181011 0.000503025 3.1487e-05 0.004 780.577 -2.47899 
131 1 1 0.0407765 -0.0214683 0.0110513 0 0 0 7.11845e-07 7.25676e-07 -2.51253e-06 7.50683e-07 9.40314e-07 -1.71706e-06 -3.83283e-05 -0.00037858 -0.000185575 0.004 791.253 -1.53746 
160 1 1 -0.0414721 -0.0199398 0.0108131 0 0 0 -9.60664e-07 2.66336e-06 2.86322e-06 1.97726e-07 -1.38025e-06 4.74517e-08 -9.08367e-05 2.79968e-05 -0.000494718 0.004 307.856 1.43905 
43 1 1 -0.0361086 -0.0151005 0.0142598 0 0 0 -3.03035e-06 9.69453e-06 1.07444e-05 6.33601e-07 -4.05434e-06 1.05732e-06 -0.00156589 -0.00126241 0.00100782 0.004 313.643 1.86247 
4 1 1 -0.0270342 -0.0151183 0.0100741 0 0 0 -4.27517e-06 5.34405e-06 3.26387e-06 1.22637e-06 -5.79333e-06 -1.71054e-06 -0.000667447 -0.000495081 0.000454702 0.004 333.524 3.17355 
104 1 1 -0.020301 -0.0192301 0.0111977 0 0 0 -7.85954e-06 5.12129e-06 2.37991e-06 -1.36661e-06 -8.48778e-06 -8.17754e-07 0.000827841 -0.000123745 -0.000669668 0.004 360.094 3.84179 
20 1 1 -0.0074548 -0.0162217 0.0110956 0 0 0 -5.65802e-06 3.33177e-06 -1.27872e-06 -2.05304e-06 -8.72042e-06 -7.32583e-06 0.000122026 0.000176257 -6.93875e-05 0.004 476.076 2.11469 
45 1 1 0.000825059 -0.0164512 0.0146048 0 0 0 -4.0905e-06 2.81459e-06 -6.61816e-06 -3.38098e-06 -1.16283e-05 -1.03905e-05 0.000114812 0.000465492 1.23405e-05 0.004 559.371 -0.309489 
159 1 1 0.00795159 -0.0177075 0.0113471 0 0 0 -4.21322e-06 2.43752e-06 -8.72764e-06 -2.67462e-06 -5.54854e-06 -9.49962e-06 -2.94945e-05 -0.000241573 -0.000193071 0.004 646.201 -2.95139 
136 1 1 0.034793 -0.0163371 0.0104656 0 0 0 1.90235e-06 3.42698e-06 -6.90896e-06 1.49015e-06 2.9711e-06 -6.27994e-06 -0.000234084 -0.00045656 -0.000198957 0.004 785.615 -2.06321 
177 1 1 -0.0443274 -0.0125288 0.0108104 0 0 0 -9.66793e-07 2.27242e-06 2.48638e-06 6.70986e-07 -1.56708e-06 1.6769e-07 6.71072e-05 -0.000428581 0.000483394 0.004 305.4 1.08621 
139 1 1 -0.0168209 -0.0121091 0.0110439 0 0 0 -4.35187e-06 3.89303e-06 3.51362e-06 -2.69487e-06 -8.35649e-06 -3.23307e-06 -0.000709932 -9.29723e-05 -4.43383e-05 0.004 381.597 3.64465 
211 1 1 -0.00209538 -0.0104147 0.0103075 0 0 0 -3.68839e-06 3.53504e-06 -2.47199e-06 -3.43222e-06 -7.28385e-06 -7.4482e-06 -1.66834e-05 4.55066e-05 -0.000250874 0.004 526.928 0.600427 
54 1 1 0.0149155 -0.0138957 0.0108309 0 0 0 -2.62607e-06 2.42561e-06 -6.22008e-06 -2.82421e-06 8.72949e-07 -6.58212e-06 0.000766592 -0.000266822 -2.83481e-05 0.004 706.983 -4.21631 
84 1 1 0.0232719 -0.0118009 0.0106603 0 0 0 -6.21086e-07 4.30286e-06 -6.32569e-06 8.67163e-07 4.52864e-06 -8.87829e-06 3.81431e-06 -0.000294317 9.04074e-05 0.004 756.119 -3.59927 
180 1 1 0.0438204 -0.0140997 0.0110465 0 0 0 6.14417e-07 7.81289e-07 -1.32141e-06 1.69809e-06 4.88445e-07 -1.88673e-06 0.000151978 -0.000115934 1.25965e-05 0.004 795.597 -0.983623 
103 1 1 0.0174441 -0.00636558 0.0105707 0 0 0 -1.90322e-06 3.60934e-06 -4.78268e-06 -6.25012e-07 3.7979e-06 -6.8903e-06 -0.000116419 0.000496078 4.31015e-05 0.004 725.096 -4.10628 
156 1 1 0.0308891 -0.00946111 0.01063 0 0 0 6.17299e-09 4.74375e-06 -6.2998e-06 5.87511e-07 4.25224e-06 -8.57549e-06 0.00033932 0.00042728 0.000323626 0.004 776.729 -2.68822 
197 1 1 -0.045783 -0.00471119 0.0107571 0 0 0 1.55561e-06 1.50862e-06 3.92372e-06 4.74008e-07 -1.28201e-06 4.87315e-08 0.000161475 -0.000408811 -0.000550412 0.004 303.667 0.825681 
87 1 1 -0.0386059 -0.00381151 0.0141381 0 0 0 1.36489e-06 7.34465e-06 7.96949e-06 -3.03527e-07 -1.27108e-06 -7.49343e-07 -0.000367467 0.00155134 0.00127184 0.004 307.24 1.25038 
130 1 1 -0.0313597 -0.00387378 0.0107775 0 0 0 -5.95641e-06 6.48187e-06 9.60163e-06 -2.16063e-06 -4.76723e-06 1.87424e-06 -0.00308562 -0.0016877 -0.00159666 0.004 318.767 2.18705 
604 1 1 -0.0224595 -0.000300799 0.0110796 0 0 0 -3.90867e-07 2.97426e-06 8.81042e-06 -1.00547e-06 -5.87692e-06 -1.9713e-06 -0.00037511 0.000384879 0.000162705 0.004 358.012 3.27949 
146 1 1 -0.0155078 -0.00400719 0.0103914 0 0 0 -1.39895e-06 3.64792e-06 5.92346e-06 -2.28319e-06 -7.05476e-06 -2.87665e-06 -0.000571518 0.000690174 -0.000245586 0.004 403.412 3.22095 
57 1 1 -0.00517523 -0.003106 0.0111955 0 0 0 -8.71217e-07 4.12391e-06 4.49391e-07 -2.84235e-06 -5.65064e-06 -6.91894e-06 -4.90836e-05 0.00051542 -5.88867e-05 0.004 503.547 1.28899 
493 1 1 0.0116956 -0.000875003 0.0103667 0 0 0 -1.96381e-06 3.60526e-06 -2.25281e-06 -2.52058e-06 1.72999e-06 -7.79802e-06 0.00035225 0.000119464 4.58868e-05 0.004 684.743 -3.77442 
31 1 1 0.0250484 -0.00405414 0.0104601 0 0 0 -1.98132e-06 4.26147e-06 -4.92742e-06 5.14459e-07 4.719e-06 -7.89658e-06 -9.21759e-05 -0.000688704 0.0001266 0.004 757.787 -3.4424 
588 1 1 0.0325998 -0.00174522 0.0105431 0 0 0 -2.16239e-06 5.43519e-06 -4.36044e-06 8.93471e-07 3.69677e-06 -8.32573e-06 -9.99745e-05 0.000537471 0.000260155 0.004 777.183 -2.54895 
63 1 1 0.045924 -0.00327879 0.0119253 0 0 0 2.10912e-07 1.48933e-06 -8.4035e-07 1.66391e-06 1.35364e-06 -2.09436e-06 0.000835927 8.51469e-05 0.000132687 0.004 795.609 -0.9367 
107 1 1 -0.00850635 -0.045273 0.017677 0 0 0 -6.11184e-06 6.07148e-07 -4.73089e-06 1.66685e-06 -3.35362e-06 -4.45265e-07 -0.00118445 0.000165611 0.00114666 0.004 469.143 2.59052 
222 1 1 -0.00141962 -0.04181 0.017113 0 0 0 -6.78919e-06 -1.20968e-08 -9.63935e-06 2.83891e-06 -7.40961e-06 -3.35539e-06 0.000937038 0.000739615 -0.00100112 0.004 539.25 0.416428 
142 1 1 0.00615862 -0.0401387 0.0154212 0 0 0 -5.24575e-06 -1.61617e-06 -1.12619e-05 2.49817e-06 -5.01263e-06 -2.2922e-06 0.000980195 6.22547e-05 0.00011316 0.004 606.675 -1.88393 
172 1 1 0.0116013 -0.0446445 0.0189548 0 0 0 -2.75764e-06 -1.70844e-06 -8.84931e-06 2.25005e-06 -2.3619e-06 -5.66846e-07 -0.00139654 -0.000268825 0.000723983 0.004 650.279 -3.31213 
109 1 1 0.0204197 -0.0412797 0.0183142 0 0 0 -3.04214e-06 7.56058e-07 -4.90683e-06 -1.49463e-07 6.29848e-08 -1.23102e-06 5.85875e-05 -0.000981913 0.000435964 0.004 723.062 -4.6235 
150 1 1 -0.0273271 -0.0370831 0.0158763 0 0 0 -4.48781e-06 2.56632e-06 8.22501e-07 -2.8868e-07 -3.03136e-06 -1.07809e-06 -0.000337716 -1.67661e-05 0.000198976 0.004 341.154 3.75592 
38 1 1 -0.0197788 -0.0373719 0.0182824 0 0 0 -7.20283e-06 3.75273e-06 -1.60348e-06 4.88541e-07 -6.8129e-06 -5.77419e-06 -3.07288e-06 0.000795215 0.000235851 0.004 372.21 4.19106 
199 1 1 -0.0118545 -0.0370265 0.01765 0 0 0 -9.20963e-06 2.72393e-06 -5.83933e-06 1.10058e-06 -1.04172e-05 -5.00364e-06 -0.000201994 -0.000434952 -0.000624421 0.004 411.178 4.00322 
93 1 1 0.0137643 -0.0377759 0.0156808 0 0 0 -4.35001e-06 -2.07902e-07 -1.12781e-05 2.0074e-06 -3.29968e-06 -3.43604e-06 0.000313543 -0.00111481 0.000466419 0.004 675.151 -3.81262 
64 1 1 0.0280176 -0.0365092 0.0179286 0 0 0 -1.93124e-06 2.67477e-07 -6.94602e-06 1.88181e-06 -3.22577e-07 -3.3629e-06 -0.000749368 -0.00120438 0.000364619 0.004 763.865 -3.76691 
22 1 1 -0.0327402 -0.032422 0.0194567 0 0 0 -3.37075e-06 3.3687e-06 2.06632e-06 -1.17688e-06 -2.86269e-06 -8.82645e-07 0.000600005 -9.82953e-05 0.000924591 0.004 324.295 2.90139 
174 1 1 -0.0224319 -0.0302104 0.0162618 0 0 0 -1.07265e-05 5.09133e-06 8.05856e-07 -1.63948e-06 -7.98622e-06 -2.25758e-06 0.000331039 -0.000174893 0.00027641 0.004 357.899 4.01083 
32 1 1 -0.00428311 -0.0343966 0.0166775 0 0 0 -8.13089e-06 8.35706e-07 -9.4328e-06 5.99894e-07 -1.37492e-05 -4.20225e-06 -0.00105874 1.44782e-06 0.000752483 0.004 504.83 1.57098 
128 1 1 0.00347459 -0.0331319 0.017996 0 0 0 -6.91072e-06 8.53423e-07 -1.4921e-05 2.73212e-07 -9.25459e-06 -5.87845e-06 -0.000757828 -4.05534e-05 -0.000385027 0.004 577.37 -0.945051 
88 1 1 0.0113687 -0.0304833 0.01771 0 0 0 -5.36126e-06 1.48012e-06 -1.45289e-05 2.87476e-06 -5.27476e-06 -8.08308e-06 -0.000174444 -8.56195e-05 -0.000143357 0.004 670.826 -3.59561 
137 1 1 0.0208046 -0.0338185 0.0156334 0 0 0 -2.54675e-06 1.4307e-06 -7.71242e-06 2.36473e-06 1.93749e-07 -4.64607e-06 -0.000650851 -0.00138767 0.000369345 0.004 737.532 -4.49928 
154 1 1 0.033982 -0.0311387 0.0180551 0 0 0 6.98685e-07 -7.40108e-07 -5.47479e-06 8.48939e-07 4.03291e-07 -2.1992e-06 -6.4965e-05 -0.000374451 -0.000171535 0.004 781.642 -2.37736 
52 1 1 -0.031991 -0.0252343 0.0161626 0 0 0 -7.11945e-06 7.81841e-06 6.48134e-06 -6.97068e-07 -4.79495e-06 -1.83941e-08 -0.000396244 8.7411e-05 0.000337998 0.004 323.102 2.62807 
80 1 1 -0.00960098 -0.0265065 0.0175806 0 0 0 -1.24837e-05 3.95583e-06 -9.87848e-06 -4.19083e-06 -1.53163e-05 -7.58689e-06 0.00012667 0.00106391 -0.000582231 0.004 443.749 3.03798 
125 1 1 -0.00117362 -0.0267 0.0173743 0 0 0 -8.13366e-06 1.13013e-06 -1.33562e-05 -4.03205e-06 -1.47297e-05 -5.66371e-06 -0.00108064 0.0026286 0.000761417 0.004 535.001 0.57914 
72 1 1 0.0179272 -0.0264316 0.0156371 0 0 0 -3.13212e-06 9.89377e-07 -1.3382e-05 2.91275e-06 -1.34506e-06 -1.19689e-05 -0.000155552 7.58113e-05 -0.000312039 0.004 718.188 -4.35996 
34 1 1 0.0269647 -0.0287251 0.0154182 0 0 0 1.68697e-06 1.97626e-06 -9.04307e-06 2.26216e-06 4.92384e-07 -5.93489e-06 -0.000356326 -2.72306e-05 -0.000533676 0.004 766.522 -3.14551 
218 1 1 -0.0395968 -0.0234663 0.0176916 0 0 0 -3.14551e-06 4.75417e-06 4.85057e-06 -1.57779e-07 -2.36886e-06 5.81463e-07 0.000169982 -0.000567787 0.000444816 0.004 310.06 1.63299 
70 1 1 -0.0247175 -0.0230257 0.0185786 0 0 0 -9.64115e-06 7.49367e-06 4.86367e-06 -1.11435e-06 -9.16821e-06 -5.06211e-07 -2.71893e-06 0.000863371 -0.000248451 0.004 343.892 3.29732 
132 1 1 -0.0171323 -0.0242634 0.0164745 0 0 0 -1.18486e-05 5.42006e-06 -2.06068e-07 -2.3553e-06 -1.08694e-05 -2.29282e-06 -0.00041119 0.000316081 2.55119e-05 0.004 379.538 3.82051 
196 1 1 0.00716648 -0.0237889 0.0170603 0 0 0 -2.38206e-06 3.13217e-06 -1.55735e-05 2.76889e-06 -1.03637e-05 -1.18394e-05 0.000297657 -0.000647878 -0.000268789 0.004 641.033 -2.70114 
362 1 1 0.0243873 -0.0214292 0.0170618 0 0 0 2.0494e-06 3.88339e-06 -1.34034e-05 2.51595e-06 1.329e-06 -1.39403e-05 1.1352e-05 -0.00156303 -4.27682e-06 0.004 765.676 -3.22327 
49 1 1 0.0387627 -0.0248027 0.0179815 0 0 0 5.63271e-07 -6.33112e-07 -4.25875e-06 4.24819e-07 1.00444e-06 -2.24463e-06 0.000303857 -8.63898e-05 0.000163546 0.004 789.598 -1.72968 
173 1 1 -0.0431191 -0.0163147 0.0177078 0 0 0 -2.80008e-06 4.4852e-06 4.99166e-06 3.13109e-07 -2.9321e-06 1.7869e-07 -0.000412359 -0.00116447 0.00107537 0.004 307.69 1.30813 
50 1 1 -0.0295064 -0.0167658 0.0182812 0 0 0 -6.73404e-06 1.27087e-05 1.40829e-05 9.27865e-08 -8.694e-06 4.33956e-07 0.000689906 0.00153592 -0.000736156 0.004 326.157 2.52078 
202 1 1 -0.0134618 -0.0172166 0.0161108 0 0 0 -8.20241e-06 3.94712e-06 9.67662e-07 -2.62193e-06 -1.32487e-05 -7.50022e-06 0.00066533 0.000188998 -0.00117737 0.004 412.717 3.35238 
86 1 1 -0.00524866 -0.0199156 0.0183758 0 0 0 -7.52688e-06 1.68291e-06 -9.57817e-06 -3.73121e-06 -1.59785e-05 -1.06324e-05 0.00119102 -0.000666803 -0.000943572 0.004 498.533 1.66975 
129 1 1 0.0138597 -0.0196295 0.0162861 0 0 0 -1.29567e-06 2.17962e-06 -1.2063e-05 1.06103e-06 -2.72722e-06 -1.22176e-05 -0.00023634 0.00071796 -0.000122494 0.004 696.358 -3.7956 
82 1 1 0.0291401 -0.0151359 0.0159325 0 0 0 2.51617e-06 4.34455e-06 -9.59642e-06 2.9599e-06 3.91194e-06 -1.04943e-05 -9.6666e-05 0.000590008 8.13755e-06 0.004 777.162 -2.64799 
1 1 1 0.0424682 -0.0178049 0.0178803 0 0 0 1.30972e-06 -7.18861e-07 -2.97683e-06 1.90794e-06 1.14381e-06 -2.67328e-06 0.000183016 9.43654e-06 -0.000204492 0.004 793.467 -1.25699 
168 1 1 -0.0224798 -0.0136303 0.016417 0 0 0 -5.94113e-06 7.53195e-06 6.83437e-06 -8.34805e-07 -1.02041e-05 -1.29612e-06 -0.000168507 -0.000166421 -0.000825353 0.004 354.082 3.44231 
121 1 1 -0.00514897 -0.0120183 0.017457 0 0 0 -3.18555e-06 1.83871e-06 -4.06856e-06 -2.8826e-06 -1.37229e-05 -1.09946e-05 0.000381075 0.000528204 0.000250153 0.004 507.836 1.23038 
28 1 1 0.00814309 -0.0139812 0.0183179 0 0 0 -2.02879e-06 2.59121e-06 -1.28192e-05 2.99351e-07 -1.07183e-05 -1.77374e-05 0.000477262 0.000396738 -0.000663196 0.004 651.741 -3.21004 
42 1 1 0.0200408 -0.0148104 0.0172662 0 0 0 -3.91009e-07 3.35206e-06 -1.30662e-05 1.86636e-06 -2.11439e-07 -1.75078e-05 0.000624712 8.47139e-05 0.000292483 0.004 741.486 -3.7149 