ITEM: TIMESTEP
42400
ITEM: NUMBER OF ATOMS
890
ITEM: BOX BOUNDS mm mm mm
-0.05 0.05
-0.05 0.05
0 0.15
ITEM: ATOMS id type type x y z ix iy iz vx vy vz fx fy fz omegax omegay omegaz radius f_Temp[0] f_heatFlux[0] 
59 1 1 -0.000715548 -0.0460982 0.00395598 0 0 0 2.5219e-07 -1.41693e-07 -2.40001e-07 -2.6521e-08 -1.22485e-07 -1.03713e-07 -2.32566e-05 -1.80209e-05 -5.51523e-06 0.004 539.809 0.308043 
170 1 1 -0.0173498 -0.0426414 0.00397301 0 0 0 2.3323e-07 -8.70828e-08 -6.45155e-08 -1.28063e-08 -9.98421e-08 -6.82621e-08 -2.48535e-05 5.8992e-06 -3.15407e-05 0.004 429.73 2.8424 
15 1 1 -0.00975016 -0.0449638 0.00393397 0 0 0 2.13426e-07 -2.13735e-07 -2.02043e-07 -1.92943e-10 -1.28543e-07 -6.39489e-08 4.08185e-05 6.2461e-05 -2.1133e-05 0.004 462.188 2.33506 
116 1 1 0.00648761 -0.0428197 0.00395869 0 0 0 4.41558e-07 -1.00157e-07 -3.83867e-07 -1.52688e-08 -2.15468e-07 -1.16903e-07 -6.56456e-05 7.26618e-05 -4.67915e-05 0.004 602.409 -1.1767 
158 1 1 0.0143627 -0.0437625 0.0038998 0 0 0 4.27085e-07 -2.57599e-07 -4.68461e-07 9.80685e-09 -1.31717e-07 -8.55866e-08 3.03534e-05 5.94517e-05 -2.03984e-05 0.004 645.85 -2.07429 
98 1 1 0.0216779 -0.0406527 0.00394261 0 0 0 3.79408e-07 -1.74537e-07 -4.23709e-07 -1.08137e-08 -7.31398e-08 -6.14766e-08 -1.90633e-05 7.19119e-06 -2.72819e-05 0.004 684.884 -2.65708 
169 1 1 -0.0244315 -0.0390659 0.00391427 0 0 0 2.05136e-07 -1.24665e-07 -1.50993e-07 -5.06033e-08 -1.60157e-07 -1.09705e-07 -3.62672e-06 3.3775e-05 -2.39135e-05 0.004 390.683 3.05534 
89 1 1 -0.011812 -0.0369235 0.00395462 0 0 0 5.20018e-07 -2.29168e-07 -3.06058e-07 -4.83547e-08 -2.48497e-07 -1.08045e-07 1.61307e-05 5.89374e-05 3.68934e-05 0.004 452.004 2.19488 
152 1 1 -0.00418342 -0.0390223 0.00390524 0 0 0 6.26509e-07 -2.76027e-07 -6.35885e-07 -4.25863e-08 -2.78785e-07 -2.26529e-07 -1.03024e-05 6.97151e-05 -6.30246e-05 0.004 509.206 0.978858 
23 1 1 0.0153483 -0.035882 0.00391129 0 0 0 8.09993e-07 -2.72826e-07 -8.89301e-07 -5.79687e-08 -2.13417e-07 -1.12809e-07 -4.11635e-05 7.86472e-05 -3.84064e-05 0.004 656.484 -2.2315 
118 1 1 -0.0307533 -0.0342397 0.00392725 0 0 0 2.58041e-07 -8.92575e-08 -1.70652e-08 -3.64652e-08 -1.19924e-07 -5.26763e-08 2.20903e-05 5.62292e-05 -2.98726e-05 0.004 360.435 3.05142 
30 1 1 -0.0188787 -0.0333717 0.00395275 0 0 0 5.34e-07 -3.98371e-07 -3.39983e-07 -1.07166e-07 -3.26927e-07 -1.65039e-07 1.88532e-05 4.4417e-05 -3.41621e-05 0.004 403.284 2.82081 
215 1 1 -0.00603631 -0.0313238 0.00390661 0 0 0 8.8429e-07 -5.32204e-07 -6.11608e-07 -2.11151e-08 -3.65426e-07 -1.42214e-07 0.000128002 4.04664e-05 6.14011e-05 0.004 489.08 1.36323 
74 1 1 0.0018414 -0.0338192 0.0039068 0 0 0 1.04744e-06 -4.82909e-07 -8.23613e-07 -6.54982e-08 -3.83783e-07 -1.48301e-07 0.000103813 0.000138641 -3.24873e-05 0.004 556.77 -0.113323 
24 1 1 0.00917857 -0.0308342 0.00392034 0 0 0 1.15088e-06 -2.60822e-07 -8.07984e-07 -1.03028e-07 -3.38698e-07 -1.21373e-07 6.69155e-05 0.000117119 2.72775e-05 0.004 622.471 -1.53955 
198 1 1 0.0259423 -0.0339524 0.00395551 0 0 0 7.39849e-07 -1.49325e-07 -6.81666e-07 -4.51445e-08 -1.47929e-07 -5.83457e-08 -5.03453e-05 7.90618e-05 -9.6777e-05 0.004 716.964 -2.88161 
161 1 1 0.0335301 -0.0316074 0.00391358 0 0 0 4.65367e-07 -2.88607e-07 -5.66428e-07 -3.84317e-08 -1.00791e-07 -1.81825e-09 6.21883e-06 -4.66229e-06 1.67498e-05 0.004 742.265 -2.80254 
8 1 1 -0.0322699 -0.0264156 0.00398405 0 0 0 4.61978e-07 -5.1704e-08 7.34274e-08 -5.8934e-08 -1.78648e-07 -1.05772e-07 -8.75499e-07 -2.25154e-05 -2.02809e-05 0.004 351.347 2.81477 
12 1 1 -0.0244143 -0.0276959 0.00386439 0 0 0 7.61472e-07 -2.56076e-07 -1.38753e-07 -1.44784e-07 -3.45204e-07 -2.00229e-07 -3.98597e-06 0.00013113 -4.63307e-05 0.004 377.555 2.88944 
188 1 1 -0.0131742 -0.0277762 0.00396588 0 0 0 9.46289e-07 -6.68231e-07 -6.48836e-07 -1.31093e-07 -4.1088e-07 -6.643e-08 3.90995e-05 8.52704e-05 -6.07966e-05 0.004 422.59 2.5969 
77 1 1 -0.000100235 -0.0260809 0.00389417 0 0 0 1.30298e-06 -4.79674e-07 -4.26264e-07 -1.7094e-07 -4.87106e-07 -8.24934e-08 0.000103479 0.000288129 -0.000107962 0.004 543.067 0.158205 
113 1 1 0.0165643 -0.0280203 0.00388659 0 0 0 1.11521e-06 -2.51083e-07 -9.3627e-07 -1.25715e-07 -2.54357e-07 -2.38079e-08 6.93853e-05 0.000127977 -4.53002e-05 0.004 673.258 -2.35977 
183 1 1 0.0384541 -0.0253742 0.00393847 0 0 0 4.67908e-07 -2.53847e-07 -5.87281e-07 -6.62938e-08 -6.35163e-08 2.89128e-08 -1.73426e-05 -4.15028e-05 -7.04626e-06 0.004 760.77 -2.5088 
162 1 1 -0.0396311 -0.023418 0.00390783 0 0 0 2.66443e-07 -1.00423e-07 3.08072e-09 -3.59984e-08 -6.76797e-08 -4.69297e-08 1.579e-05 5.19984e-05 2.21636e-05 0.004 332.685 2.35458 
53 1 1 -0.027206 -0.0202486 0.00395169 0 0 0 9.8653e-07 -3.32304e-07 3.93688e-08 -1.44034e-07 -3.28661e-07 -1.60666e-07 7.47392e-05 0.000184091 -4.73217e-05 0.004 361.156 2.79547 
148 1 1 -0.0187584 -0.0220642 0.00393817 0 0 0 1.21579e-06 -5.54487e-07 -1.82018e-07 -1.64966e-07 -4.95905e-07 -6.57189e-08 0.000137486 0.000214361 -5.39482e-05 0.004 400.595 2.81605 
195 1 1 -0.00727816 -0.02155 0.00394566 0 0 0 2.14501e-06 -2.69104e-07 -6.61821e-07 -2.93552e-07 -5.91674e-07 -1.57846e-07 4.60155e-05 0.000491855 0.000162292 0.004 475.704 1.65383 
179 1 1 0.0073663 -0.0231031 0.00394274 0 0 0 1.56198e-06 -2.33491e-07 -1.98171e-07 -1.57116e-07 -4.53662e-07 -1.01401e-07 1.96143e-05 0.000325039 -8.83118e-05 0.004 621.303 -1.55691 
95 1 1 0.0148506 -0.02031 0.00393211 0 0 0 1.52267e-06 -2.33626e-07 -1.0481e-06 -1.94827e-07 -3.59674e-07 6.92513e-08 4.9933e-05 0.00019085 4.52107e-05 0.004 669.569 -2.29129 
76 1 1 0.0230028 -0.0233057 0.00397473 0 0 0 1.23557e-06 -1.32717e-07 -8.93766e-07 -2.08652e-07 -3.17067e-07 1.99692e-08 8.44429e-06 0.000247767 6.56269e-06 0.004 722.718 -2.84565 
100 1 1 0.0325586 -0.0200895 0.00388596 0 0 0 1.23621e-06 -4.07627e-07 -1.27424e-06 -2.37195e-07 -2.50706e-07 5.83635e-08 -8.5383e-06 0.000180047 -4.97878e-05 0.004 752.294 -2.60395 
65 1 1 -0.0430742 -0.0162802 0.00393146 0 0 0 2.37435e-07 -1.5678e-07 1.24041e-07 -2.78078e-08 -3.65408e-08 -4.11402e-08 1.81429e-05 -1.15335e-05 -3.60154e-05 0.004 324.05 2.02254 
102 1 1 -0.0351583 -0.0155178 0.0039445 0 0 0 7.8427e-07 -4.52051e-07 1.50179e-07 -4.94429e-08 -3.26028e-07 -1.7824e-07 0.000123393 0.000125359 -2.59739e-06 0.004 335.581 2.29974 
213 1 1 -0.0132588 -0.0162738 0.00397365 0 0 0 1.23631e-06 -5.58803e-07 -2.01723e-07 -2.06342e-07 -4.3016e-07 1.63982e-08 1.75417e-05 8.02341e-05 2.08233e-05 0.004 426.003 2.51852 
10 1 1 0.00114846 -0.0182524 0.00475004 0 0 0 1.91829e-06 -3.95252e-07 -6.13795e-07 -2.59932e-07 -6.79552e-07 -1.48706e-07 -5.74803e-05 -0.000299972 8.35114e-05 0.004 563.619 -0.370383 
5 1 1 0.00879791 -0.0152553 0.00390316 0 0 0 1.63427e-06 -2.51001e-07 -7.10604e-07 -3.18331e-07 -4.97253e-07 3.37066e-08 -2.3696e-05 0.000199353 1.46643e-05 0.004 630.316 -1.68792 
96 1 1 0.0211693 -0.0155242 0.00395652 0 0 0 1.33509e-06 -1.34977e-07 -8.39318e-07 -1.56835e-07 -3.80189e-07 5.75766e-09 4.87946e-05 0.000132215 -4.08957e-05 0.004 717.301 -2.68838 
167 1 1 0.0421923 -0.0183683 0.00392112 0 0 0 5.2544e-07 -2.36899e-07 -3.51036e-07 -6.66244e-08 -4.59826e-08 2.98997e-08 7.725e-05 0.000112238 2.76371e-05 0.004 775.553 -2.09035 
124 1 1 -0.029011 -0.0104716 0.00394792 0 0 0 1.24232e-06 -6.30208e-07 7.13736e-08 -3.74894e-08 -3.74003e-07 -1.78804e-07 0.00012132 0.000262899 -3.65713e-05 0.004 354.596 2.53132 
220 1 1 -0.0217759 -0.0144543 0.00398045 0 0 0 1.29e-06 -6.33487e-07 -3.73023e-08 -2.33132e-07 -3.22133e-07 -1.68021e-07 0.000226205 0.000223171 -5.62684e-05 0.004 381.401 2.69355 
144 1 1 -0.00535516 -0.0138038 0.00388181 0 0 0 1.86583e-06 -4.09495e-07 -6.50521e-07 -3.27258e-07 -7.10995e-07 -1.90786e-07 8.14225e-05 0.000384705 -4.19015e-05 0.004 508.699 0.748541 
26 1 1 0.00255574 -0.0104629 0.0039057 0 0 0 1.72887e-06 -2.81572e-07 -8.55899e-07 -3.94784e-07 -7.43684e-07 -3.85244e-08 -7.3337e-05 0.000154024 -5.11513e-05 0.004 567.73 -0.480396 
194 1 1 0.0287352 -0.013103 0.00393081 0 0 0 1.484e-06 -2.94886e-07 -1.23189e-06 -2.86776e-07 -3.55478e-07 9.96422e-08 1.6003e-05 0.000238489 -2.40798e-05 0.004 746.107 -2.62693 
37 1 1 0.0366701 -0.0122308 0.00393305 0 0 0 1.2436e-06 -2.45723e-07 -1.49055e-06 -2.63752e-07 -2.78597e-07 1.9478e-07 0.000152154 0.000211174 0.000198812 0.004 769.596 -2.23078 
219 1 1 0.0447285 -0.0108715 0.00390888 0 0 0 3.2626e-07 -1.27433e-07 -1.92499e-07 -3.55056e-08 -5.43203e-08 3.01328e-08 8.22945e-05 7.13559e-05 4.80816e-05 0.004 782.26 -1.81759 
636 1 1 -0.0451997 -0.00864275 0.00391771 0 0 0 2.42792e-07 -1.18653e-07 1.02822e-07 -5.44527e-08 -4.8604e-08 -4.25707e-08 1.31186e-05 4.64523e-05 8.81175e-07 0.004 317.1 1.71915 
39 1 1 -0.0161466 -0.00885108 0.00388992 0 0 0 1.48646e-06 -5.851e-07 -7.30813e-08 -3.09916e-07 -4.88515e-07 -1.53118e-07 6.16971e-05 0.000216389 -9.2428e-06 0.004 418.335 2.21071 
171 1 1 -0.00395984 -0.00597828 0.00392048 0 0 0 1.72381e-06 -3.82531e-07 -4.53638e-07 -3.84942e-07 -7.22076e-07 2.61783e-08 6.41659e-05 0.000198146 5.76379e-05 0.004 513.037 0.617295 
200 1 1 0.0146298 -0.00986519 0.00396379 0 0 0 1.69204e-06 -2.48536e-07 -8.15659e-07 -2.92479e-07 -5.27273e-07 7.70101e-08 8.79485e-05 0.00018436 1.57139e-05 0.004 675.274 -2.38016 
21 1 1 0.022252 -0.00762162 0.00394337 0 0 0 1.53081e-06 -1.27026e-07 -9.61166e-07 -2.05594e-07 -4.69138e-07 1.67737e-07 5.19802e-05 0.000217321 -5.63498e-06 0.004 719.962 -2.69514 
17 1 1 0.0298456 -0.00520716 0.00394876 0 0 0 1.48475e-06 -1.18965e-07 -1.48322e-06 -2.37332e-07 -3.9093e-07 2.48445e-07 2.49573e-05 0.000296629 1.97463e-05 0.004 745.803 -2.64005 
477 1 1 -0.0445832 -0.000710814 0.00396286 0 0 0 3.59841e-07 -1.6727e-07 1.55216e-07 -1.31031e-07 -8.20126e-08 -7.60723e-08 2.05088e-05 7.2993e-05 -2.79638e-05 0.004 316.211 1.64158 
140 1 1 -0.0352672 -0.00371827 0.0038725 0 0 0 7.39451e-07 -5.62346e-07 2.71397e-07 -1.72673e-07 -2.45209e-07 -1.99026e-07 0.000133711 0.000124546 -4.72093e-05 0.004 336.15 2.13061 
119 1 1 -0.0273891 -0.00269834 0.00396393 0 0 0 1.03406e-06 -6.90184e-07 2.48788e-07 -1.99054e-07 -2.98827e-07 -1.24164e-07 9.54996e-05 5.47205e-05 5.26501e-05 0.004 361.424 2.3995 
207 1 1 -0.0194911 -0.00168728 0.00389515 0 0 0 1.26308e-06 -6.67021e-07 1.75717e-07 -2.38865e-07 -4.73029e-07 -1.59836e-07 6.48688e-05 0.000203872 1.00507e-05 0.004 398.423 2.29545 
69 1 1 -0.0111572 -0.00264551 0.0039301 0 0 0 1.42763e-06 -5.72138e-07 -1.35109e-07 -2.74436e-07 -5.6973e-07 -2.87064e-08 7.23802e-05 0.000171892 3.63423e-05 0.004 453.827 1.66657 
221 1 1 0.00874804 -0.00448987 0.00393203 0 0 0 1.69803e-06 -3.14908e-07 -3.99306e-07 -4.05006e-07 -7.21135e-07 1.02242e-07 4.52928e-05 0.000141501 -5.95874e-05 0.004 639.201 -1.85452 
457 1 1 0.0163505 -0.00208059 0.0039593 0 0 0 1.60053e-06 -3.53929e-07 -5.83801e-07 -2.0896e-07 -5.27341e-07 1.79426e-07 0.000167971 0.000286079 7.72933e-05 0.004 686.501 -2.50154 
155 1 1 0.0378912 -0.00224685 0.00393693 0 0 0 1.31897e-06 -7.64087e-08 -1.22457e-06 -2.43727e-07 -2.81151e-07 1.88113e-07 3.30887e-05 0.000325223 -3.76165e-05 0.004 772.197 -2.05146 
665 1 1 0.0459183 -0.00307627 0.00394261 0 0 0 5.82167e-07 7.67312e-08 -2.47502e-07 -4.78586e-08 -1.10594e-07 3.92811e-08 -8.34503e-05 0.000139405 -9.95778e-05 0.004 782.433 -1.77215 
120 1 1 0.00918487 -0.0371091 0.00876937 0 0 0 1.50863e-06 -3.67147e-07 -1.2916e-06 -7.77102e-08 -5.11309e-07 -2.22464e-07 6.5127e-05 6.71263e-05 -7.71855e-05 0.004 623.865 -1.62162 
9 1 1 -0.0247147 -0.033359 0.00937625 0 0 0 9.54575e-07 -3.72868e-07 -1.9284e-07 -1.66446e-07 -4.13135e-07 -2.31794e-07 5.57048e-05 0.000102628 -0.000112854 0.004 380.825 2.98749 
101 1 1 -0.0188615 -0.0277191 0.0095515 0 0 0 1.84055e-06 -7.72243e-07 -6.42837e-07 -3.36672e-07 -7.71397e-07 -2.01021e-07 -1.205e-05 0.000175371 -0.000119094 0.004 398.488 2.79443 
48 1 1 0.0221998 -0.0293138 0.00920033 0 0 0 1.58109e-06 -2.9797e-07 -1.53144e-06 -1.66158e-07 -4.50529e-07 -1.39283e-08 8.45255e-05 1.0989e-05 0.000154177 0.004 707.012 -2.6809 
75 1 1 0.02936 -0.0261745 0.00787423 0 0 0 1.31787e-06 -2.0276e-07 -1.36281e-06 -2.02253e-07 -3.76238e-07 6.88478e-09 -7.66221e-05 7.53472e-06 -0.000149785 0.004 739.156 -2.74388 
46 1 1 -0.0327912 -0.0205809 0.00958352 0 0 0 1.50544e-06 -5.63326e-07 1.81004e-08 -3.13296e-07 -4.4135e-07 -4.06031e-07 1.11895e-05 -8.38095e-05 3.32607e-05 0.004 347.675 2.54888 
33 1 1 -0.013034 -0.0220249 0.00949571 0 0 0 2.77687e-06 -9.01433e-07 -1.12844e-06 -3.61514e-07 -8.68493e-07 -1.88313e-08 3.20938e-05 0.000292394 8.85758e-05 0.004 427.336 2.43568 
11 1 1 0.02689 -0.0187448 0.00924464 0 0 0 2.49945e-06 -1.7567e-07 -2.047e-06 -3.8567e-07 -5.77313e-07 1.19471e-07 -5.42601e-05 -4.2328e-05 -8.99825e-05 0.004 734.824 -2.69141 
71 1 1 -0.0372751 -0.00954696 0.00876625 0 0 0 9.41238e-07 -7.08041e-07 2.54389e-07 -8.2174e-08 -2.44109e-07 -1.63583e-07 -0.000100738 -3.74514e-05 4.01383e-05 0.004 328.85 2.05991 
62 1 1 -0.0228082 -0.00771372 0.00814041 0 0 0 2.0164e-06 -1.03029e-06 2.85043e-07 -3.85288e-07 -6.04193e-07 -2.84119e-07 -5.88581e-06 -4.78988e-05 3.67319e-05 0.004 380.637 2.51675 
19 1 1 -0.00970672 -0.00905633 0.00849074 0 0 0 3.10932e-06 -9.12165e-07 -2.90536e-07 -6.5467e-07 -1.16609e-06 -2.0466e-07 6.35729e-06 4.52617e-05 4.44364e-05 0.004 477.421 1.23996 
187 1 1 0.00796709 -0.00988205 0.00975754 0 0 0 2.36352e-06 -6.06079e-07 -8.16829e-07 -1.26006e-06 -9.17687e-07 1.14495e-07 0.00011504 2.43268e-05 0.000156028 0.004 624.793 -1.79765 
157 1 1 0.0395817 -0.00751948 0.00963113 0 0 0 2.15407e-06 -1.77029e-07 -2.34542e-06 -3.79675e-07 -4.31938e-07 3.76062e-07 -0.000104337 0.000121038 -0.000195 0.004 777.242 -1.95688 
18 1 1 0.00229112 -0.00404901 0.00852647 0 0 0 3.05914e-06 -6.58253e-07 -1.03959e-06 -6.99779e-07 -1.37974e-06 1.46201e-07 0.000100132 0.000141801 -3.615e-05 0.004 566.262 -0.410988 
185 1 1 -0.00531148 -0.045735 0.0104438 0 0 0 5.32918e-07 -3.75322e-07 -5.86372e-07 -3.65603e-08 -2.30415e-07 -1.29831e-07 -4.5239e-05 1.27484e-05 -3.43866e-05 0.004 503.664 1.21906 
83 1 1 0.00256736 -0.0459473 0.0112661 0 0 0 7.01591e-07 -3.54307e-07 -9.1913e-07 -8.14912e-09 -3.28907e-07 -2.09964e-07 -0.000223685 8.23711e-05 -5.91848e-05 0.004 563.052 -0.230661 
58 1 1 -0.0218568 -0.0405821 0.0112769 0 0 0 6.55426e-07 -4.70588e-07 -4.06224e-07 -1.26711e-07 -3.15808e-07 -1.19747e-07 -8.71165e-06 9.84385e-05 -0.00017287 0.004 395.388 2.99162 
105 1 1 -0.013586 -0.043966 0.0108788 0 0 0 7.47417e-07 -1.35012e-07 -2.44507e-07 8.88685e-08 -2.29021e-07 -1.06274e-07 -3.74536e-05 0.000130865 -0.000168826 0.004 443.373 2.90088 
223 1 1 0.0103957 -0.0448674 0.0106706 0 0 0 7.90757e-07 -3.55889e-07 -1.02196e-06 5.66917e-09 -2.82224e-07 -1.85076e-07 -0.000133174 -6.6458e-05 -2.1104e-05 0.004 617.449 -1.49188 
217 1 1 0.0179432 -0.0424253 0.0108281 0 0 0 9.53592e-07 -4.27361e-07 -1.07464e-06 1.62501e-08 -2.04389e-07 -1.31033e-07 -0.000143856 -6.17564e-06 -9.37176e-05 0.004 662.234 -2.35604 
6 1 1 -0.0162615 -0.0350311 0.0113114 0 0 0 1.5915e-06 -9.49682e-07 -8.38573e-07 -9.38187e-08 -6.84439e-07 -3.55024e-07 0.000108114 0.000130611 -3.04362e-05 0.004 420.295 2.62993 
151 1 1 -0.00801307 -0.0382603 0.0108115 0 0 0 1.53239e-06 -7.279e-07 -9.52926e-07 -1.20916e-10 -5.8619e-07 -3.18541e-07 7.13235e-05 0.000151286 -7.4408e-05 0.004 476.149 1.76707 
2 1 1 0.000443924 -0.038308 0.010271 0 0 0 1.60259e-06 -7.85182e-07 -1.34944e-06 -5.60914e-08 -7.32407e-07 -3.22272e-07 3.42895e-05 0.000150568 -9.24645e-05 0.004 549.413 0.0530151 
117 1 1 0.0249196 -0.0387267 0.0109177 0 0 0 8.43821e-07 -4.47668e-07 -9.35848e-07 -1.80317e-08 -1.82723e-07 -6.7025e-08 -7.15517e-05 -2.28689e-05 -4.66444e-05 0.004 703.902 -2.81322 
13 1 1 -0.0323455 -0.0327547 0.011537 0 0 0 6.4148e-07 -2.71842e-07 -7.92673e-09 -1.19079e-07 -2.49817e-07 -1.2443e-07 8.73037e-06 1.20615e-05 1.96332e-05 0.004 358.239 2.90343 
193 1 1 -0.00982579 -0.0305006 0.0107685 0 0 0 2.06361e-06 -1.0259e-06 -1.3123e-06 -1.94385e-07 -8.95062e-07 -3.47417e-07 -8.04519e-05 0.000157989 -0.000103989 0.004 466.425 1.79682 
47 1 1 -0.00133757 -0.0305434 0.0103848 0 0 0 2.47118e-06 -1.09966e-06 -1.17183e-06 -2.53379e-07 -8.61289e-07 -1.95425e-07 8.11787e-05 4.03731e-05 -4.03284e-05 0.004 538.745 0.258486 
153 1 1 0.00656463 -0.0300231 0.0113662 0 0 0 2.98776e-06 -7.4652e-07 -1.67339e-06 -3.55928e-07 -9.20253e-07 -2.63008e-07 4.80327e-05 0.000106999 1.05288e-05 0.004 602 -1.14761 
41 1 1 0.0148076 -0.0317915 0.010654 0 0 0 2.20298e-06 -6.60618e-07 -1.75528e-06 -2.04862e-07 -6.01521e-07 -1.45284e-07 3.15347e-05 0.000158533 -7.15851e-05 0.004 661.877 -2.26805 
163 1 1 0.0311565 -0.0339183 0.0111114 0 0 0 8.5195e-07 -5.09704e-07 -1.0646e-06 -4.53732e-08 -1.94274e-07 -1.67443e-08 -3.46889e-05 -2.98692e-05 2.67667e-05 0.004 737.41 -2.80524 
214 1 1 -0.0375015 -0.0268265 0.010714 0 0 0 7.4423e-07 -2.41894e-07 -4.13454e-08 -1.457e-07 -2.44027e-07 -1.68799e-07 -2.75399e-05 6.79713e-05 -0.000125331 0.004 341.667 2.53423 
210 1 1 0.0364694 -0.0280971 0.0111135 0 0 0 8.45966e-07 -3.7852e-07 -1.1114e-06 -9.36985e-08 -1.75856e-07 2.50735e-08 -5.95266e-05 -3.42864e-05 -2.28721e-05 0.004 759.635 -2.50346 
108 1 1 -0.0260915 -0.0246404 0.0109305 0 0 0 2.02282e-06 -5.47868e-07 -3.04862e-07 -4.007e-07 -7.82095e-07 -2.68719e-07 8.08479e-05 7.15925e-05 -6.54037e-05 0.004 369.289 2.72686 
40 1 1 -0.00551111 -0.0238697 0.0113285 0 0 0 3.42308e-06 -1.07207e-06 -1.44823e-06 -4.37444e-07 -1.10664e-06 -1.60493e-07 0.000132717 -0.000257618 -0.000107041 0.004 498.39 1.0648 
55 1 1 0.0023621 -0.0232851 0.0108249 0 0 0 3.79697e-06 -9.65145e-07 -1.25862e-06 -5.08428e-07 -1.17391e-06 -1.6229e-07 7.91726e-06 0.000404925 7.55066e-06 0.004 572.997 -0.511114 
91 1 1 0.0120918 -0.0243837 0.0101856 0 0 0 3.27915e-06 -6.44348e-07 -1.79562e-06 -4.58639e-07 -7.66502e-07 -5.21465e-08 -8.99061e-05 0.000234059 -0.000168514 0.004 646.613 -2.00288 
112 1 1 0.0192794 -0.0205361 0.0105073 0 0 0 3.40489e-06 -4.49501e-07 -2.80285e-06 -5.68144e-07 -7.62582e-07 2.4271e-07 0.000161547 0.000154855 9.55689e-05 0.004 691.853 -2.58571 
178 1 1 0.0318658 -0.0225253 0.0144788 0 0 0 2.66518e-06 -4.2007e-07 -2.5202e-06 -3.31156e-07 -5.4523e-07 1.70952e-07 2.91618e-05 0.000202608 -3.25574e-05 0.004 753.941 -2.57746 
131 1 1 0.0407765 -0.0214683 0.0110513 0 0 0 9.86267e-07 -4.42826e-07 -9.86034e-07 -1.23906e-07 -1.52364e-07 4.43225e-08 -6.23488e-05 -0.000132633 -2.09979e-05 0.004 771.299 -2.2011 
160 1 1 -0.0414721 -0.0199398 0.0108131 0 0 0 5.93084e-07 -2.28085e-07 9.33131e-08 -1.22455e-07 -1.21719e-07 -8.82419e-08 9.38041e-06 8.08544e-05 5.18773e-05 0.004 326.913 2.12604 
43 1 1 -0.0361086 -0.0151005 0.0142598 0 0 0 1.6441e-06 -8.89363e-07 3.33906e-07 -3.26533e-07 -4.40935e-07 -3.46379e-07 0.000112385 0.000163565 -4.97561e-05 0.004 335.023 2.19544 
4 1 1 -0.0270342 -0.0151184 0.010074 0 0 0 2.55945e-06 -7.75112e-07 -4.52339e-08 -3.04535e-07 -7.62066e-07 -4.29809e-07 -9.39645e-05 0.000167558 -0.000132923 0.004 363.547 2.64339 
104 1 1 -0.020301 -0.0192302 0.0111977 0 0 0 2.8601e-06 -1.14842e-06 -3.36339e-07 -5.03022e-07 -1.08328e-06 -2.51561e-07 8.25839e-06 0.000103223 -4.98462e-05 0.004 392.682 2.6271 
20 1 1 -0.00745479 -0.0162218 0.0110955 0 0 0 4.14727e-06 -1.01519e-06 -8.13755e-07 -7.73385e-07 -1.3823e-06 -4.43344e-07 9.54172e-05 0.000203873 -1.55225e-05 0.004 491.291 1.07378 
45 1 1 0.000825077 -0.0164513 0.0146047 0 0 0 5.2135e-06 -1.12398e-06 -1.75895e-06 -1.04817e-06 -1.84986e-06 -8.03616e-08 -0.000104837 4.01092e-05 -5.68238e-05 0.004 556.69 -0.211092 
159 1 1 0.00795161 -0.0177076 0.011347 0 0 0 4.07163e-06 -8.52596e-07 -1.81153e-06 -7.86027e-07 -1.14803e-06 2.22755e-08 0.000128299 0.000171522 0.000104273 0.004 624.36 -1.56074 
136 1 1 0.0347931 -0.0163371 0.0104655 0 0 0 2.4411e-06 -4.88079e-07 -2.66057e-06 -3.60636e-07 -4.95292e-07 2.3411e-07 -0.000145694 7.18513e-06 -0.000147128 0.004 762.084 -2.38301 
177 1 1 -0.0443274 -0.0125289 0.0108104 0 0 0 5.27038e-07 -3.09447e-07 1.88057e-07 -5.94186e-08 -1.00536e-07 -6.10466e-08 1.02804e-05 2.89222e-05 -5.773e-05 0.004 321.131 1.86611 
139 1 1 -0.0168209 -0.0121092 0.0110439 0 0 0 3.37857e-06 -1.33982e-06 -5.05033e-07 -6.73031e-07 -1.1258e-06 -3.31913e-07 0.000178761 0.000348464 -3.26674e-05 0.004 411.073 2.29703 
211 1 1 -0.00209538 -0.0104148 0.0103075 0 0 0 3.85593e-06 -8.07816e-07 -1.17478e-06 -8.11058e-07 -1.49884e-06 -1.22121e-08 0.000147803 0.00028226 9.54449e-05 0.004 530.984 0.277197 
54 1 1 0.0149155 -0.0138957 0.0108309 0 0 0 3.73447e-06 -5.57077e-07 -1.74986e-06 -6.95868e-07 -9.64575e-07 1.04212e-07 0.000146143 0.000150071 -2.57396e-05 0.004 674.385 -2.4137 
84 1 1 0.023272 -0.0118009 0.0106602 0 0 0 3.62149e-06 -2.65141e-07 -2.2418e-06 -4.9814e-07 -8.99007e-07 2.33086e-07 5.97597e-07 0.000318642 -2.03474e-05 0.004 724.101 -2.67793 
180 1 1 0.0438204 -0.0140997 0.0110465 0 0 0 9.63289e-07 -3.97779e-07 -9.59934e-07 -1.39746e-07 -1.31058e-07 1.18368e-07 -5.21186e-05 -2.45287e-05 -7.73161e-06 0.004 780.293 -1.88225 
103 1 1 0.0174441 -0.00636559 0.0105707 0 0 0 3.95993e-06 -5.16434e-07 -1.71821e-06 -5.59052e-07 -1.15108e-06 2.52274e-07 -9.04367e-05 0.000164405 2.58891e-05 0.004 692.328 -2.5027 
156 1 1 0.0308891 -0.0094611 0.0106299 0 0 0 3.17048e-06 -3.41318e-07 -2.97593e-06 -3.94261e-07 -7.3722e-07 3.55393e-07 -1.34164e-05 0.000109944 -1.68733e-05 0.004 749.522 -2.52541 
197 1 1 -0.045783 -0.0047112 0.0107571 0 0 0 5.45172e-07 -2.64309e-07 2.6431e-07 -1.35929e-07 -6.67935e-08 -1.06762e-07 2.31568e-05 1.02527e-05 -2.10602e-05 0.004 316.928 1.6742 
87 1 1 -0.0386059 -0.00381153 0.0141381 0 0 0 1.09309e-06 -1.17774e-06 3.9222e-07 -2.88072e-07 -3.22555e-07 -2.0847e-07 0.000231402 8.65903e-05 -5.61211e-05 0.004 323.736 1.86525 
130 1 1 -0.0313597 -0.00387382 0.0107775 0 0 0 1.5352e-06 -1.34277e-06 1.61891e-07 -3.78732e-07 -5.72489e-07 -2.65259e-07 5.14327e-05 5.93516e-05 -5.47091e-05 0.004 341.729 2.22065 
604 1 1 -0.0224595 -0.000300842 0.0110796 0 0 0 2.58156e-06 -1.59296e-06 7.43553e-07 -6.75617e-07 -1.00312e-06 -3.57161e-07 0.000122008 0.00010724 -9.99654e-06 0.004 385.983 2.29897 
146 1 1 -0.0155078 -0.00400724 0.0103913 0 0 0 2.85978e-06 -1.35643e-06 -4.23432e-08 -6.66518e-07 -1.16674e-06 -2.75416e-07 6.08026e-05 0.000102498 5.83813e-05 0.004 428.619 1.92574 
57 1 1 -0.00517522 -0.00310603 0.0111954 0 0 0 3.7996e-06 -1.0771e-06 -4.09064e-07 -7.48121e-07 -1.54125e-06 9.92748e-08 3.741e-05 0.000261921 2.17477e-05 0.004 512.645 0.636583 
493 1 1 0.0116957 -0.000875011 0.0103666 0 0 0 4.05127e-06 -7.40459e-07 -1.27344e-06 -7.12183e-07 -1.39101e-06 2.84258e-07 3.80224e-05 0.000419389 3.31271e-05 0.004 656.622 -2.02755 
31 1 1 0.0250484 -0.00405414 0.0104601 0 0 0 3.51801e-06 -3.99419e-07 -2.23511e-06 -4.87799e-07 -9.61595e-07 3.99349e-07 9.84666e-05 0.000224625 2.65538e-05 0.004 727.142 -2.57904 
588 1 1 0.0325999 -0.00174522 0.0105431 0 0 0 2.76379e-06 -3.23744e-07 -2.45368e-06 -3.01437e-07 -8.17885e-07 4.07407e-07 0.000115312 6.16322e-05 5.62707e-05 0.004 751.433 -2.40442 
63 1 1 0.045924 -0.00327879 0.0119253 0 0 0 1.26121e-06 -2.5587e-07 -1.17811e-06 -1.91627e-07 -2.14439e-07 1.20902e-07 0.000250808 -0.000239925 0.000140466 0.004 781.112 -1.79252 
107 1 1 -0.00850634 -0.045273 0.017677 0 0 0 1.40038e-06 -6.21325e-07 -5.55352e-07 -2.34856e-08 -3.8411e-07 -4.03114e-09 5.25273e-05 0.000212079 -0.000212505 0.004 488.713 1.43424 
222 1 1 -0.0014196 -0.0418101 0.0171129 0 0 0 2.38182e-06 -1.34857e-06 -1.62968e-06 -1.31099e-07 -8.12744e-07 -3.4076e-07 0.000103652 0.000133772 -4.85599e-05 0.004 542.324 0.225266 
142 1 1 0.00615864 -0.0401388 0.0154212 0 0 0 2.03122e-06 -7.99158e-07 -2.01771e-06 -1.47588e-07 -7.8375e-07 -3.44257e-07 3.24197e-05 8.0401e-05 -3.2902e-06 0.004 593.083 -0.949672 
172 1 1 0.0116014 -0.0446446 0.0189547 0 0 0 1.44987e-06 -6.73796e-07 -1.68138e-06 -1.04228e-07 -5.4272e-07 -2.22198e-07 -0.000277215 8.12018e-05 -0.000233966 0.004 626.197 -1.70404 
109 1 1 0.0204197 -0.0412797 0.0183142 0 0 0 9.46959e-07 -1.01678e-07 -1.16135e-06 -1.81175e-07 -3.20589e-07 -9.61623e-08 -0.000166651 -0.000148111 -9.42788e-05 0.004 685.662 -2.8622 
150 1 1 -0.0273271 -0.0370832 0.0158763 0 0 0 9.29374e-07 -4.2196e-07 -1.92198e-07 -1.15166e-07 -3.12871e-07 -1.33012e-07 6.11901e-05 2.47943e-05 -5.07058e-05 0.004 375.793 2.9701 
38 1 1 -0.0197788 -0.0373719 0.0182824 0 0 0 1.94262e-06 -8.74018e-07 -8.0815e-07 -1.39429e-07 -7.06839e-07 -4.15228e-07 -6.32802e-05 0.000160395 -0.000140662 0.004 407.059 2.76122 
199 1 1 -0.0118545 -0.0370266 0.01765 0 0 0 2.51608e-06 -1.42518e-06 -1.50019e-06 -1.67364e-07 -9.9511e-07 -3.07889e-07 -2.19767e-05 4.7594e-05 2.9301e-05 0.004 442.127 2.30937 
93 1 1 0.0137643 -0.0377759 0.0156807 0 0 0 2.2077e-06 -7.19677e-07 -2.38404e-06 -2.11794e-07 -6.88268e-07 -2.82889e-07 7.47046e-05 -8.95633e-06 -7.03284e-05 0.004 646.542 -2.07571 
64 1 1 0.0280177 -0.0365092 0.0179286 0 0 0 1.38562e-06 -6.42763e-08 -1.34663e-06 -1.72627e-07 -3.09423e-07 -1.6124e-07 -0.000161082 5.69676e-05 -0.000262776 0.004 728.385 -3.06628 
22 1 1 -0.0327402 -0.032422 0.0194567 0 0 0 1.24311e-06 -4.34384e-07 -1.1769e-07 -3.18903e-07 -3.50683e-07 -1.79809e-07 -7.5507e-06 7.28897e-05 -0.00024418 0.004 354.005 2.7646 
174 1 1 -0.0224319 -0.0302105 0.0162617 0 0 0 2.68657e-06 -8.90675e-07 -7.53754e-07 -3.89192e-07 -9.29186e-07 -2.85941e-07 -7.02016e-05 0.000158389 -0.000123748 0.004 392.208 2.78563 
32 1 1 -0.00428309 -0.0343967 0.0166775 0 0 0 3.67185e-06 -1.22062e-06 -1.66463e-06 -3.78704e-07 -1.25697e-06 -3.61528e-07 -3.86498e-05 0.000246587 -7.4985e-05 0.004 516.067 0.791572 
128 1 1 0.00347461 -0.033132 0.0179959 0 0 0 4.19071e-06 -9.19696e-07 -2.65746e-06 -5.40876e-07 -1.40475e-06 -4.14078e-07 -9.70582e-05 0.000181407 -0.000155278 0.004 570.523 -0.476533 
88 1 1 0.0113687 -0.0304834 0.0177099 0 0 0 4.28559e-06 -5.76888e-07 -2.5663e-06 -4.78317e-07 -1.16414e-06 -3.29453e-07 -4.12116e-05 0.000178812 -0.000132779 0.004 643.837 -1.96106 
137 1 1 0.0208047 -0.0338186 0.0156334 0 0 0 1.93364e-06 -5.18486e-07 -1.99273e-06 -1.97657e-07 -4.86844e-07 -2.39455e-08 -0.000110943 -5.12642e-05 -0.000126259 0.004 700.377 -2.90352 
154 1 1 0.0339821 -0.0311387 0.0180551 0 0 0 1.22223e-06 -4.7494e-07 -1.38725e-06 -1.4486e-07 -2.45431e-07 3.88738e-08 -7.96338e-05 -8.16778e-05 -4.87881e-05 0.004 755.562 -2.5656 
52 1 1 -0.031991 -0.0252343 0.0161626 0 0 0 2.08861e-06 -7.55201e-07 -4.03964e-07 -4.20614e-07 -6.02957e-07 -3.78802e-07 6.2e-05 0.000126878 -7.61925e-05 0.004 350.254 2.56483 
80 1 1 -0.00960096 -0.0265066 0.0175805 0 0 0 4.67473e-06 -1.36765e-06 -2.31025e-06 -7.5279e-07 -1.6446e-06 -2.03388e-07 -1.54286e-05 0.000466333 8.72006e-06 0.004 466.353 1.6431 
125 1 1 -0.0011736 -0.0267001 0.0173742 0 0 0 5.1882e-06 -5.75317e-07 -2.49036e-06 -9.07468e-07 -1.91145e-06 -8.34895e-08 -0.000491303 0.000808664 -5.99525e-05 0.004 538.573 0.219815 
72 1 1 0.0179273 -0.0264316 0.015637 0 0 0 4.20981e-06 -8.52433e-07 -3.24017e-06 -6.43445e-07 -8.82613e-07 3.64375e-08 -0.00010031 0.000251611 -0.000258524 0.004 683.773 -2.60044 
34 1 1 0.0269647 -0.0287251 0.0154182 0 0 0 2.22355e-06 -3.51144e-07 -2.17241e-06 -2.69669e-07 -6.04128e-07 6.74889e-09 -0.00011341 0.000126247 -0.000183417 0.004 736.184 -2.71817 
218 1 1 -0.0395968 -0.0234663 0.0176916 0 0 0 1.195e-06 -4.83353e-07 -1.51388e-08 -2.29765e-07 -2.82421e-07 -2.30063e-07 5.92029e-05 4.85663e-05 -3.13571e-05 0.004 330.441 2.19758 
70 1 1 -0.0247175 -0.0230258 0.0185786 0 0 0 3.47268e-06 -1.2269e-06 -8.53352e-07 -6.85753e-07 -1.07175e-06 -3.3538e-07 0.000118806 6.32358e-05 -8.52988e-05 0.004 373.829 2.57451 
132 1 1 -0.0171323 -0.0242634 0.0164744 0 0 0 3.80507e-06 -1.38208e-06 -1.21427e-06 -6.52365e-07 -1.21078e-06 -2.82426e-07 4.75311e-05 8.43665e-05 -8.93392e-05 0.004 410.731 2.44844 
196 1 1 0.00716653 -0.023789 0.0170602 0 0 0 6.11255e-06 -3.72174e-07 -2.97341e-06 -9.3954e-07 -1.89436e-06 -6.68235e-08 -0.000186166 0.000128858 -0.000143033 0.004 620.796 -1.46661 
362 1 1 0.0243874 -0.0214292 0.0170617 0 0 0 4.61765e-06 -3.23079e-07 -3.09706e-06 -7.09204e-07 -1.12399e-06 -3.06185e-08 -0.000144264 0.000102169 -0.000241878 0.004 735.274 -2.67436 
49 1 1 0.0387627 -0.0248027 0.0179815 0 0 0 1.24827e-06 -5.37144e-07 -1.29349e-06 -2.09263e-07 -1.86118e-07 5.46619e-08 5.86661e-05 4.50759e-05 -1.94882e-05 0.004 768.076 -2.30518 
173 1 1 -0.0431191 -0.0163148 0.0177078 0 0 0 1.04393e-06 -5.42638e-07 3.88808e-07 -1.8216e-07 -1.73741e-07 -1.4921e-07 3.65641e-05 -4.90531e-05 -7.7822e-05 0.004 324.949 1.94493 
50 1 1 -0.0295064 -0.0167659 0.0182812 0 0 0 2.97719e-06 -1.41184e-06 -3.7773e-07 -6.31069e-07 -1.03068e-06 -5.26937e-07 6.17287e-05 2.24952e-05 9.34242e-05 0.004 351.303 2.34243 
202 1 1 -0.0134618 -0.0172167 0.0161107 0 0 0 4.55169e-06 -1.27852e-06 -1.11649e-06 -8.85489e-07 -1.65604e-06 -5.64542e-07 -0.000101662 -0.00012048 9.8978e-05 0.004 438.486 1.93189 
86 1 1 -0.00524864 -0.0199157 0.0183758 0 0 0 5.58944e-06 -1.32223e-06 -2.81359e-06 -1.03106e-06 -2.06803e-06 2.5673e-08 0.000193339 -0.00013882 1.46136e-05 0.004 509.885 0.765504 
129 1 1 0.0138597 -0.0196295 0.016286 0 0 0 5.60468e-06 -6.49695e-07 -2.85993e-06 -1.03749e-06 -1.23922e-06 1.50297e-07 3.82778e-05 0.000223552 1.45897e-05 0.004 666.844 -2.21201 
82 1 1 0.0291401 -0.0151359 0.0159325 0 0 0 4.26233e-06 -6.27216e-07 -3.31026e-06 -6.71967e-07 -9.44814e-07 3.26517e-07 0.000112672 0.000341938 4.4455e-06 0.004 750.114 -2.53177 
1 1 1 0.0424683 -0.0178049 0.0178803 0 0 0 1.61181e-06 -5.40503e-07 -1.2387e-06 -2.8504e-07 -2.09885e-07 1.28719e-07 3.97238e-05 9.00469e-05 -2.17776e-05 0.004 776.005 -2.01272 
168 1 1 -0.0224798 -0.0136303 0.016417 0 0 0 3.84974e-06 -1.52401e-06 -5.21038e-08 -7.52829e-07 -1.32856e-06 -5.18896e-07 9.56959e-05 1.05505e-06 -0.000180752 0.004 383.809 2.45609 
121 1 1 -0.00514895 -0.0120184 0.0174569 0 0 0 6.0001e-06 -1.44582e-06 -1.37506e-06 -1.21613e-06 -2.09638e-06 -9.63493e-08 5.64841e-05 0.000185908 -6.35172e-06 0.004 516.249 0.570592 
28 1 1 0.00814312 -0.0139813 0.0183177 0 0 0 7.10438e-06 -1.55539e-06 -3.02786e-06 -1.13199e-06 -2.25434e-06 1.98966e-07 -4.85469e-06 0.000489202 -0.000207488 0.004 628.648 -1.61993 