ITEM: TIMESTEP
29600
ITEM: NUMBER OF ATOMS
890
ITEM: BOX BOUNDS mm mm mm
-0.05 0.05
-0.05 0.05
0 0.15
ITEM: ATOMS id type type x y z ix iy iz vx vy vz fx fy fz omegax omegay omegaz radius f_Temp[0] f_heatFlux[0] 
59 1 1 -0.00071555 -0.0460982 0.00395597 0 0 0 -5.27248e-07 -1.67267e-06 -2.92122e-06 1.3292e-06 1.84848e-07 6.74069e-07 -0.000481318 -0.00012041 0.000406177 0.004 531.076 1.46464 
170 1 1 -0.0173498 -0.0426414 0.00397301 0 0 0 -1.01608e-06 -1.71813e-06 -2.28033e-06 3.09463e-07 4.49709e-07 4.39119e-07 -0.000242164 1.94895e-05 2.13534e-05 0.004 366.738 6.09228 
15 1 1 -0.00975016 -0.0449638 0.00393397 0 0 0 -3.39706e-07 -2.85718e-06 -2.97747e-06 1.12103e-06 6.24558e-07 -4.39081e-07 0.000643054 0.00021844 -0.000313899 0.004 406.114 6.0182 
116 1 1 0.00648761 -0.0428197 0.00395869 0 0 0 -4.13097e-07 -3.25516e-06 -4.74828e-06 8.70018e-07 -3.41122e-07 -3.61522e-08 -0.000132569 6.53877e-05 -0.000555211 0.004 631.988 -3.23767 
158 1 1 0.0143627 -0.0437626 0.0038998 0 0 0 8.55103e-07 -2.93732e-06 -3.50832e-06 -5.37561e-08 3.20606e-07 -6.90869e-09 0.000164799 0.000108032 0.000328885 0.004 696.378 -5.68089 
98 1 1 0.0216779 -0.0406527 0.00394261 0 0 0 -2.73426e-07 -1.47266e-06 -2.13925e-06 1.46356e-07 2.83764e-07 -5.38578e-07 -0.000102521 -0.000249405 0.000148193 0.004 742.653 -5.63546 
169 1 1 -0.0244315 -0.0390659 0.00391427 0 0 0 -2.03502e-06 -3.13342e-06 -3.58074e-06 8.60183e-08 2.87012e-07 -8.05836e-08 -3.65273e-05 -6.08219e-05 0.000152943 0.004 332.773 4.57635 
89 1 1 -0.011812 -0.0369235 0.00395462 0 0 0 -2.16352e-06 -4.00772e-06 -5.48209e-06 4.8299e-07 5.71961e-07 7.84187e-08 0.0009927 0.000413099 -7.05091e-05 0.004 402.582 5.11544 
152 1 1 -0.00418342 -0.0390223 0.00390524 0 0 0 -1.99151e-06 -4.52e-06 -8.9754e-06 8.80563e-07 1.25593e-06 5.50506e-07 5.83414e-05 -0.000308896 7.2991e-05 0.004 484.963 2.94502 
23 1 1 0.0153483 -0.035882 0.00391129 0 0 0 -6.48191e-07 -4.08311e-06 -6.49976e-06 -1.44767e-07 6.1427e-07 -9.11714e-07 8.16352e-05 -0.000523449 0.000252174 0.004 709.716 -5.90043 
118 1 1 -0.0307533 -0.0342397 0.00392725 0 0 0 -1.75489e-06 -2.3024e-06 -2.39196e-06 -1.15684e-09 1.87557e-07 -1.67398e-07 0.000287785 -0.00032975 1.52207e-05 0.004 312.625 2.72779 
30 1 1 -0.0188787 -0.0333717 0.00395275 0 0 0 -4.48934e-06 -5.20814e-06 -6.66933e-06 2.10125e-08 1.09564e-06 -2.07779e-07 7.07558e-05 -0.000967473 0.000205411 0.004 347.265 4.82571 
215 1 1 -0.00603631 -0.0313238 0.00390662 0 0 0 -9.79751e-07 -7.5733e-06 -9.44271e-06 -1.76908e-08 1.0158e-06 -8.3924e-07 0.00109818 0.000174388 0.000120422 0.004 455.207 4.06222 
74 1 1 0.0018414 -0.0338192 0.0039068 0 0 0 -1.28895e-06 -5.49784e-06 -9.24952e-06 2.70037e-07 2.13821e-06 -6.7086e-07 0.000563432 -0.00022004 -0.000142667 0.004 559.165 -0.205822 
24 1 1 0.00917856 -0.0308342 0.00392035 0 0 0 -1.563e-06 -5.35368e-06 -9.19863e-06 -1.80471e-07 1.02146e-06 -1.68255e-06 0.000680648 -0.000577699 0.000365513 0.004 660.515 -4.46998 
198 1 1 0.0259423 -0.0339524 0.00395551 0 0 0 -3.38594e-07 -2.43354e-06 -3.82851e-06 6.40469e-07 2.73088e-07 -1.05173e-06 -0.000217145 -0.000429788 -0.000260703 0.004 771.194 -4.31261 
161 1 1 0.0335301 -0.0316074 0.00391358 0 0 0 1.39315e-07 -3.13284e-06 -1.83664e-06 7.4677e-07 -6.92747e-08 -5.38226e-07 0.000343141 -0.00020723 0.000385508 0.004 786.803 -2.72183 
8 1 1 -0.0322699 -0.0264156 0.00398405 0 0 0 -2.71615e-06 -2.86825e-06 -4.02178e-06 -1.1965e-07 4.71814e-07 -2.97658e-07 -0.00026561 0.000988826 -2.33257e-05 0.004 309.763 2.20003 
12 1 1 -0.0244143 -0.0276959 0.00386439 0 0 0 -5.57645e-06 -5.84788e-06 -9.18924e-06 -1.661e-07 9.85485e-07 -9.84147e-07 0.000995992 -0.000816735 -0.000321395 0.004 325.587 3.86732 
188 1 1 -0.0131742 -0.0277763 0.00396589 0 0 0 -4.65813e-06 -5.6218e-06 -6.29103e-06 -2.51396e-07 1.92342e-06 -7.5757e-07 0.000377965 -0.00106351 0.000183504 0.004 366.16 5.44064 
77 1 1 -0.00010023 -0.0260809 0.00389418 0 0 0 -6.4451e-06 -7.17537e-06 -1.02514e-05 -1.44356e-06 2.35917e-06 -2.04654e-06 0.00072525 -0.000933412 0.00106008 0.004 538.51 0.63467 
113 1 1 0.0165643 -0.0280203 0.0038866 0 0 0 -1.33841e-06 -3.82645e-06 -5.86372e-06 8.21716e-07 6.31465e-07 -1.92472e-06 0.000352766 -0.000283904 3.99438e-06 0.004 725.41 -5.3613 
183 1 1 0.0384541 -0.0253742 0.00393848 0 0 0 2.20516e-09 -2.44005e-06 -1.75462e-06 7.04484e-07 7.59843e-08 -7.6743e-07 7.40451e-06 -0.000243518 0.000432205 0.004 794.299 -1.5177 
162 1 1 -0.0396311 -0.023418 0.00390783 0 0 0 -2.55783e-06 -1.18294e-06 -1.98811e-06 -3.87584e-07 1.94013e-07 -4.57732e-07 0.0003039 -0.000543259 -0.000517497 0.004 303.718 1.09916 
53 1 1 -0.027206 -0.0202486 0.00395169 0 0 0 -6.63226e-06 -3.38969e-06 -6.71994e-06 -8.48126e-08 1.32062e-06 -8.30068e-07 4.09789e-06 -0.0019111 0.000562049 0.004 315.532 2.90226 
148 1 1 -0.0187584 -0.0220642 0.00393818 0 0 0 -7.02083e-06 -7.6788e-06 -9.72796e-06 -8.13039e-07 1.84235e-06 -2.16091e-06 0.000907332 -0.00120075 0.00038011 0.004 342.268 5.18399 
195 1 1 -0.00727817 -0.0215501 0.00394567 0 0 0 -3.57224e-06 -3.49426e-06 -1.08145e-05 4.07726e-08 3.61721e-06 -1.14014e-06 0.000653141 0.000153743 -0.000151016 0.004 429.732 5.86317 
179 1 1 0.0073663 -0.0231031 0.00394276 0 0 0 -3.45074e-06 -6.73544e-06 -9.98485e-06 -2.57889e-07 1.22594e-06 -2.1744e-06 0.000648213 4.02532e-05 0.000123994 0.004 661.089 -4.90265 
95 1 1 0.0148506 -0.02031 0.00393214 0 0 0 -1.65839e-06 -4.37034e-06 -9.42958e-06 8.28947e-07 1.56316e-06 -3.52921e-06 0.000552829 7.13054e-05 0.00023904 0.004 721.211 -5.40671 
76 1 1 0.0230028 -0.0233057 0.00397475 0 0 0 -1.58675e-06 -5.80372e-06 -4.86826e-06 2.55297e-06 4.85032e-07 -2.49882e-06 0.000614311 0.000116492 -0.000315399 0.004 774.139 -3.86184 
100 1 1 0.0325586 -0.0200895 0.00388597 0 0 0 -2.79954e-07 -7.0075e-06 -5.47526e-06 3.15054e-06 8.18885e-07 -1.77074e-06 0.000991537 -0.00062734 5.11909e-05 0.004 790.586 -2.08056 
65 1 1 -0.0430742 -0.0162802 0.00393146 0 0 0 -1.89979e-06 -1.121e-07 -2.09029e-06 -3.16019e-07 3.15274e-07 -8.00461e-07 1.3898e-05 0.000140872 0.000190426 0.004 301.954 0.662649 
102 1 1 -0.0351583 -0.0155178 0.0039445 0 0 0 -5.88474e-06 -1.10685e-06 -6.10881e-06 -6.34968e-07 1.88399e-06 -1.56619e-06 0.000325304 -0.00033689 -0.000490652 0.004 305.287 1.36876 
213 1 1 -0.0132588 -0.0162738 0.00397366 0 0 0 -8.94334e-06 -3.93904e-06 -6.86221e-06 -1.49482e-06 2.90999e-06 -1.86104e-06 0.0004513 -0.00164589 0.000799576 0.004 366.495 6.20293 
10 1 1 0.00114846 -0.0182524 0.00475005 0 0 0 -7.42204e-06 -7.50161e-06 -1.40242e-05 -6.43567e-07 3.58568e-06 -2.30414e-06 -0.000388948 -0.000706306 -0.000562452 0.004 572.985 -1.18229 
5 1 1 0.0087979 -0.0152554 0.00390318 0 0 0 -3.94713e-06 -6.46074e-06 -1.09623e-05 8.72857e-07 2.0524e-06 -3.66824e-06 0.00134971 -0.00107966 0.000565916 0.004 671.787 -4.73811 
96 1 1 0.0211693 -0.0155243 0.00395654 0 0 0 5.91896e-07 -5.07645e-06 -8.96832e-06 2.46686e-06 1.65629e-06 -3.1803e-06 -2.03139e-05 0.000558597 -0.000765533 0.004 767.815 -4.0814 
167 1 1 0.0421923 -0.0183683 0.00392112 0 0 0 3.63481e-07 -1.63087e-06 -8.64859e-07 5.91499e-07 2.7052e-07 -4.54613e-07 0.000345965 0.000127166 -8.18732e-05 0.004 798.097 -0.657603 
124 1 1 -0.0290109 -0.0104716 0.00394792 0 0 0 -9.20811e-06 -1.17668e-06 -6.20447e-06 -2.35298e-06 3.50757e-06 -5.74448e-07 0.000171943 -0.00132386 0.000158052 0.004 313.845 2.61301 
220 1 1 -0.0217759 -0.0144544 0.00398045 0 0 0 -8.69427e-06 2.75708e-08 -6.33918e-06 -9.45797e-07 3.36742e-06 -6.41839e-07 -0.00162956 -0.000423343 0.000828629 0.004 331.365 3.96486 
144 1 1 -0.00535516 -0.0138039 0.00388184 0 0 0 -7.42753e-06 -7.00424e-06 -1.94487e-05 3.07819e-07 3.98708e-06 -3.16096e-06 0.000344533 -0.00176094 0.00113955 0.004 488.259 2.66463 
26 1 1 0.00255573 -0.010463 0.00390572 0 0 0 -6.24069e-06 -8.57568e-06 -1.42977e-05 1.06846e-06 3.70772e-06 -3.17428e-06 0.000771508 -0.00210855 0.000226832 0.004 579.79 -1.36191 
194 1 1 0.0287352 -0.013103 0.00393083 0 0 0 1.72612e-07 -7.14134e-06 -7.64942e-06 3.20861e-06 1.55093e-06 -2.55386e-06 0.000734487 -0.000159775 1.39107e-06 0.004 787.286 -2.49035 
37 1 1 0.03667 -0.0122308 0.00393307 0 0 0 -7.58101e-08 -6.69281e-06 -4.2701e-06 4.17639e-06 1.47412e-06 -1.82033e-06 0.00174092 -7.2334e-05 0.000444724 0.004 796.527 -1.00912 
219 1 1 0.0447285 -0.0108715 0.00390888 0 0 0 5.85018e-07 -1.34966e-06 -2.89989e-07 9.95667e-07 2.18298e-07 -4.01756e-07 0.000307363 0.00016768 0.000184109 0.004 799.215 -0.333221 
636 1 1 -0.0451997 -0.00864275 0.00391771 0 0 0 -1.91669e-06 -1.66035e-07 -1.36778e-06 -4.2494e-07 3.07631e-07 -7.57175e-07 1.85326e-05 -0.000335771 3.13632e-05 0.004 300.84 0.341391 
39 1 1 -0.0161466 -0.00885111 0.00388993 0 0 0 -9.48367e-06 -2.10516e-06 -1.41586e-05 -5.29204e-07 4.37513e-06 -2.6027e-06 0.000388878 -0.00071887 -0.00114857 0.004 370.334 4.81175 
171 1 1 -0.00395984 -0.00597831 0.00392051 0 0 0 -7.60188e-06 -7.90461e-06 -1.71712e-05 8.03007e-07 3.66496e-06 -3.98637e-06 0.00123999 -0.0012348 -0.000685867 0.004 496.523 2.20813 
200 1 1 0.0146298 -0.00986522 0.00396382 0 0 0 -4.73415e-07 -5.70865e-06 -9.66087e-06 2.49207e-06 1.23132e-06 -4.24275e-06 0.000377762 0.000407152 -0.000879079 0.004 729.367 -5.4932 
21 1 1 0.022252 -0.00762164 0.0039434 0 0 0 1.36946e-06 -5.95117e-06 -9.25552e-06 3.22659e-06 2.07437e-06 -4.23095e-06 0.000988135 0.000609142 0.000539801 0.004 770.85 -4.03938 
17 1 1 0.0298456 -0.00520718 0.00394879 0 0 0 1.57331e-06 -5.94829e-06 -7.31487e-06 3.43518e-06 2.20151e-06 -2.96043e-06 0.000747865 0.000466427 -0.000501479 0.004 787.926 -2.53807 
477 1 1 -0.0445832 -0.00071082 0.00396286 0 0 0 -3.57927e-06 -1.11596e-08 -1.83966e-06 2.78257e-08 5.79807e-07 -4.25513e-07 -3.48149e-05 -0.000663014 0.000205886 0.004 300.89 0.332152 
140 1 1 -0.0352672 -0.00371829 0.0038725 0 0 0 -6.5499e-06 9.00617e-07 -6.04313e-06 7.17315e-07 3.3398e-06 -2.82629e-07 -0.000611585 -0.000997607 0.000758501 0.004 307.001 1.51379 
119 1 1 -0.0273891 -0.00269837 0.00396393 0 0 0 -7.10318e-06 -5.04107e-07 -6.52894e-06 -8.05237e-09 4.85184e-06 -1.08958e-06 7.52658e-05 0.000251952 -0.000897349 0.004 320.306 3.02421 
207 1 1 -0.0194911 -0.00168732 0.00389516 0 0 0 -7.35472e-06 -1.09581e-06 -1.44403e-05 8.20123e-07 5.0392e-06 -2.14559e-06 -0.00017855 -0.00081335 0.00066355 0.004 350.879 4.56295 
69 1 1 -0.0111573 -0.00264555 0.00393012 0 0 0 -6.53325e-06 -3.15127e-06 -1.32048e-05 9.1753e-07 4.2236e-06 -2.98901e-06 0.000311632 -0.00103032 0.000142331 0.004 413.022 4.86673 
221 1 1 0.00874802 -0.00448991 0.00393206 0 0 0 -7.93732e-07 -7.80872e-06 -1.17576e-05 1.76715e-06 2.94331e-06 -3.65184e-06 0.000612893 -0.000464274 0.00127336 0.004 685.885 -5.31528 
457 1 1 0.0163505 -0.00208062 0.00395933 0 0 0 1.72896e-06 -4.83591e-06 -8.64887e-06 2.57921e-06 9.77394e-07 -4.54763e-06 0.001189 0.000761172 1.45717e-05 0.004 742.899 -5.62469 
155 1 1 0.0378912 -0.00224686 0.00393695 0 0 0 9.45233e-07 -5.46756e-06 -5.28831e-06 3.021e-06 1.49999e-06 -1.66552e-06 0.000790319 0.000252747 -0.000915516 0.004 796.648 -0.939484 
665 1 1 0.0459183 -0.00307627 0.00394261 0 0 0 2.07317e-06 -8.51998e-07 -1.37591e-06 1.10561e-06 1.51404e-07 -5.47775e-07 -0.00029825 0.000469395 -0.000435741 0.004 799.12 -0.351878 
120 1 1 0.00918486 -0.0371091 0.00876937 0 0 0 -2.88186e-06 -7.26331e-06 -1.31867e-05 -3.07853e-07 1.75039e-06 -6.74669e-07 -0.000206513 -0.000803913 0.000248086 0.004 664.876 -4.84842 
9 1 1 -0.0247147 -0.033359 0.00937625 0 0 0 -7.37102e-06 -6.75061e-06 -9.90761e-06 -2.20945e-07 1.57071e-06 -7.46688e-07 -0.000403989 -3.99664e-06 0.00045623 0.004 326.329 4.10699 
101 1 1 -0.0188615 -0.0277191 0.00955151 0 0 0 -1.11974e-05 -1.04214e-05 -1.43324e-05 -2.96575e-07 3.12784e-06 -1.64726e-06 8.23289e-05 -0.000625848 0.00100616 0.004 342.389 4.91743 
48 1 1 0.0221998 -0.0293139 0.00920035 0 0 0 -1.31946e-06 -8.08171e-06 -7.60983e-06 8.55811e-07 9.00153e-07 -3.23304e-06 0.00154802 0.000177324 0.00018256 0.004 759.059 -4.49573 
75 1 1 0.02936 -0.0261745 0.00787424 0 0 0 -1.61542e-06 -7.51871e-06 -6.16768e-06 1.65925e-06 1.00332e-06 -2.01552e-06 -0.000668882 -7.93804e-05 0.000153978 0.004 783.735 -2.8841 
46 1 1 -0.0327912 -0.0205809 0.00958352 0 0 0 -1.14991e-05 -5.8825e-06 -1.37513e-05 -5.50199e-07 1.92618e-06 -2.05318e-06 -8.43586e-06 0.000231366 0.00024299 0.004 309.851 2.10813 
33 1 1 -0.013034 -0.0220249 0.00949573 0 0 0 -9.87121e-06 -7.36476e-06 -1.42089e-05 -1.18343e-06 5.02868e-06 -3.21702e-06 4.63251e-05 0.000915771 0.00063748 0.004 372.943 5.3599 
11 1 1 0.02689 -0.0187448 0.00924467 0 0 0 -9.84936e-07 -9.68838e-06 -1.22762e-05 3.14494e-06 2.6035e-06 -5.24805e-06 -0.000786984 0.000112419 -0.000419112 0.004 780.5 -3.18563 
71 1 1 -0.0372751 -0.00954698 0.00876626 0 0 0 -6.15782e-06 9.84563e-08 -6.65704e-06 -3.23079e-07 2.09696e-06 -2.55686e-06 0.000373101 0.000239151 2.13358e-05 0.004 303.695 1.01445 
62 1 1 -0.0228082 -0.00771377 0.00814041 0 0 0 -1.09677e-05 -9.05056e-07 -1.50803e-05 -3.7382e-07 6.39991e-06 -1.46125e-06 -0.000849951 0.00159872 -4.56975e-05 0.004 332.778 3.99485 
19 1 1 -0.00970672 -0.0090564 0.00849077 0 0 0 -1.53737e-05 -1.13581e-05 -2.94858e-05 3.14439e-07 7.22867e-06 -5.39648e-06 0.000973098 -9.65211e-05 -0.000304061 0.004 447.138 3.57267 
187 1 1 0.00796706 -0.00988208 0.00975757 0 0 0 9.04907e-07 -1.50899e-05 -1.50359e-05 1.57968e-06 3.568e-06 -4.70662e-06 0.00128364 0.00251275 -0.00242336 0.004 675.707 -6.51323 
157 1 1 0.0395816 -0.0075195 0.00963117 0 0 0 2.43317e-06 -7.04565e-06 -6.9498e-06 5.79791e-06 3.08057e-06 -3.51212e-06 -0.000920273 0.00111652 -6.76134e-05 0.004 798.217 -0.611386 
18 1 1 0.0022911 -0.00404909 0.00852653 0 0 0 -1.05982e-05 -1.32501e-05 -2.82551e-05 1.78703e-06 7.91874e-06 -6.58933e-06 -0.000889941 -0.00253964 -0.000676089 0.004 576.725 -1.18817 
185 1 1 -0.00531148 -0.045735 0.0104438 0 0 0 -2.82039e-06 -4.53295e-06 -5.67298e-06 6.19408e-07 1.08165e-06 3.92841e-07 -0.000566347 -0.00105529 0.000441548 0.004 474.071 3.33958 
83 1 1 0.00256736 -0.0459474 0.0112661 0 0 0 -2.3122e-06 -4.88948e-06 -1.01351e-05 -1.3478e-07 1.67244e-06 2.39837e-06 -0.00249619 0.00189549 -0.000177206 0.004 572.141 -1.75343 
58 1 1 -0.0218568 -0.0405822 0.0112769 0 0 0 -4.92738e-06 -3.50361e-06 -4.42443e-06 2.36585e-07 1.0929e-06 -7.11504e-07 -0.000443732 -0.000326488 0.000517875 0.004 336.708 4.92981 
105 1 1 -0.013586 -0.043966 0.0108788 0 0 0 8.05738e-07 -2.47213e-06 -4.83451e-06 2.83556e-06 -1.51362e-07 2.44415e-08 -0.000780651 0.0011331 -0.000651687 0.004 373.776 7.11974 
223 1 1 0.0103957 -0.0448674 0.0106706 0 0 0 -1.28734e-06 -4.56999e-06 -1.04831e-05 -2.061e-07 1.43782e-06 1.00894e-06 -0.00127226 -0.00196361 0.000654761 0.004 656.489 -4.91245 
217 1 1 0.0179432 -0.0424254 0.0108281 0 0 0 2.65354e-07 -4.06666e-06 -4.84231e-06 4.67337e-07 1.09652e-06 -1.2172e-06 -0.000239708 -0.0004965 -1.30949e-05 0.004 716.981 -5.86878 
6 1 1 -0.0162615 -0.0350312 0.0113114 0 0 0 -5.62173e-06 -8.79907e-06 -1.6528e-05 3.38663e-07 1.63327e-06 -2.21027e-06 -0.000474953 0.00345707 -0.00136293 0.004 363.898 5.48625 
151 1 1 -0.00801308 -0.0382603 0.0108115 0 0 0 -1.93702e-06 -9.18887e-06 -1.48597e-05 1.39128e-06 1.55066e-06 -3.55292e-07 1.20562e-06 0.00035667 -7.39771e-05 0.004 432.987 4.95592 
2 1 1 0.000443923 -0.038308 0.010271 0 0 0 -4.20697e-06 -9.76496e-06 -1.55544e-05 3.8707e-07 4.76947e-06 9.59631e-07 0.00104877 9.1177e-05 -0.000321277 0.004 548.235 0.16063 
117 1 1 0.0249196 -0.0387267 0.0109177 0 0 0 9.20088e-07 -4.76445e-06 -2.92872e-06 3.91029e-07 6.951e-07 -2.02812e-06 0.000395067 0.000344952 -0.000160327 0.004 759.833 -4.8577 
13 1 1 -0.0323455 -0.0327547 0.011537 0 0 0 -4.91041e-06 -4.22811e-06 -6.11838e-06 -2.18577e-07 8.64845e-07 -7.00631e-07 -0.000265386 -9.26534e-05 -0.00011617 0.004 312.635 2.68776 
193 1 1 -0.00982578 -0.0305006 0.0107685 0 0 0 -8.36595e-06 -1.22563e-05 -2.63426e-05 -1.44107e-06 3.4116e-06 -2.93564e-06 -0.00209454 -0.00279174 0.00152451 0.004 422.676 5.10058 
47 1 1 -0.00133757 -0.0305434 0.0103848 0 0 0 -8.7983e-06 -1.23707e-05 -2.03701e-05 -1.27073e-06 4.09312e-06 -2.5544e-06 -0.000218887 -0.0016013 0.00126666 0.004 531.097 1.13406 
153 1 1 0.00656463 -0.0300231 0.0113662 0 0 0 -7.6415e-06 -1.29147e-05 -2.21618e-05 -5.25887e-07 4.40168e-06 -3.91586e-06 0.000481941 -0.000555776 7.05149e-05 0.004 631.232 -3.5192 
41 1 1 0.0148076 -0.0317915 0.010654 0 0 0 -4.27539e-06 -1.10319e-05 -1.50066e-05 7.03238e-07 2.09176e-06 -3.28712e-06 0.000480262 -0.000784573 0.000165172 0.004 714.91 -5.78116 
163 1 1 0.0311565 -0.0339183 0.0111114 0 0 0 8.23322e-07 -5.55588e-06 -3.85041e-06 6.4607e-07 5.13791e-07 -1.34258e-06 -0.000133965 -0.000201784 0.000494281 0.004 783.34 -2.9979 
214 1 1 -0.0375015 -0.0268266 0.010714 0 0 0 -5.60748e-06 -3.88635e-06 -6.8478e-06 -5.86156e-07 7.20093e-07 -1.26678e-06 -0.000198579 0.00125187 -0.000157924 0.004 306.738 1.68088 
210 1 1 0.0364694 -0.0280972 0.0111135 0 0 0 3.16705e-07 -4.374e-06 -3.65722e-06 4.63395e-07 4.08016e-07 -1.233e-06 -0.00017234 -0.000443959 0.00016827 0.004 793.481 -1.59732 
108 1 1 -0.0260915 -0.0246404 0.0109305 0 0 0 -1.29811e-05 -1.2105e-05 -1.75704e-05 -5.62599e-07 3.14755e-06 -3.26296e-06 0.000322165 -0.000456617 -0.00052102 0.004 321.885 3.43084 
40 1 1 -0.00551111 -0.0238697 0.0113286 0 0 0 -1.05345e-05 -1.23298e-05 -2.3439e-05 -1.74228e-06 5.18089e-06 -3.81182e-06 0.00124985 -0.00122431 -0.00114598 0.004 470.89 3.38282 
55 1 1 0.00236209 -0.0232852 0.0108249 0 0 0 -8.6905e-06 -1.49072e-05 -2.43885e-05 -6.77106e-07 5.93314e-06 -5.51221e-06 0.000152301 0.00237044 3.52594e-05 0.004 585.504 -1.45523 
91 1 1 0.0120918 -0.0243837 0.0101856 0 0 0 -7.53157e-06 -1.38046e-05 -1.88446e-05 1.10681e-06 2.31023e-06 -5.79498e-06 0.000178235 -0.00157806 0.000503849 0.004 695.598 -5.65351 
112 1 1 0.0192794 -0.0205361 0.0105073 0 0 0 -5.12523e-06 -1.21935e-05 -2.05428e-05 2.87375e-06 3.00842e-06 -9.06551e-06 0.00225779 -0.00220427 0.000597793 0.004 747.296 -5.34285 
178 1 1 0.0318658 -0.0225254 0.0144789 0 0 0 1.14208e-06 -9.79194e-06 -8.18268e-06 -6.29024e-07 2.20253e-06 -3.67184e-06 0.000698055 0.000447246 -0.000108915 0.004 791.142 -1.97226 
131 1 1 0.0407765 -0.0214683 0.0110513 0 0 0 7.42997e-07 -4.1181e-06 -2.87323e-06 6.92138e-07 7.78523e-07 -9.76741e-07 -9.35221e-05 -0.000411889 0.000407412 0.004 797.026 -0.907945 
160 1 1 -0.0414721 -0.0199398 0.0108131 0 0 0 -4.26519e-06 -1.45144e-06 -3.82331e-06 -7.22446e-07 6.95316e-07 -1.35824e-06 0.000123938 -0.00048158 -0.000261155 0.004 302.543 0.813554 
43 1 1 -0.0361086 -0.0151005 0.0142598 0 0 0 -1.0575e-05 -5.44281e-06 -1.45818e-05 -1.31267e-06 2.83078e-06 -5.79336e-06 0.0011914 0.000497064 -0.00144908 0.004 305.949 1.38819 
4 1 1 -0.0270342 -0.0151184 0.010074 0 0 0 -1.5779e-05 -9.00873e-06 -1.77428e-05 -1.61653e-06 4.58292e-06 -3.00558e-06 0.00152878 0.00123946 -0.00070502 0.004 318.68 3.1146 
104 1 1 -0.020301 -0.0192302 0.0111977 0 0 0 -1.67146e-05 -1.22667e-05 -2.37663e-05 -7.84907e-07 6.33883e-06 -4.95553e-06 -0.00153361 -0.000502344 0.000866412 0.004 340.502 4.55381 
20 1 1 -0.0074548 -0.0162218 0.0110956 0 0 0 -1.62773e-05 -1.42333e-05 -3.45077e-05 4.99114e-07 7.47989e-06 -5.12252e-06 -0.000985458 -0.00245487 0.00224904 0.004 463.495 3.45997 
45 1 1 0.000825059 -0.0164514 0.0146048 0 0 0 -1.83361e-05 -1.8205e-05 -3.96252e-05 1.15564e-06 1.06241e-05 -8.60677e-06 -0.00165865 -0.00272751 0.00157656 0.004 560.946 -0.393833 
159 1 1 0.00795159 -0.0177076 0.0113471 0 0 0 -1.05498e-05 -1.75574e-05 -2.96237e-05 6.68062e-07 5.01718e-06 -9.11326e-06 0.000590148 -0.000909893 -3.94717e-05 0.004 663.19 -4.52709 
136 1 1 0.0347931 -0.0163371 0.0104656 0 0 0 9.7985e-07 -9.59231e-06 -9.37292e-06 2.6387e-06 2.36129e-06 -2.66186e-06 -0.00115377 -2.5723e-05 0.000150921 0.004 794.064 -1.49656 
177 1 1 -0.0443274 -0.0125289 0.0108104 0 0 0 -3.07006e-06 -3.98519e-07 -3.01328e-06 -6.51865e-07 1.05623e-06 -1.83251e-06 2.69765e-05 0.000204508 -3.60647e-05 0.004 301.578 0.547308 
139 1 1 -0.0168209 -0.0121093 0.0110439 0 0 0 -1.75804e-05 -1.19852e-05 -3.04266e-05 -2.58536e-07 8.34785e-06 -5.93451e-06 0.0022097 0.000675708 -0.00153946 0.004 362.073 4.81159 
211 1 1 -0.00209539 -0.0104149 0.0103075 0 0 0 -1.80607e-05 -1.32302e-05 -3.41071e-05 4.71139e-07 8.81871e-06 -7.61017e-06 0.00104973 -0.000299872 -0.000846763 0.004 523.201 1.06321 
54 1 1 0.0149155 -0.0138958 0.0108309 0 0 0 -6.84385e-06 -1.40643e-05 -2.17575e-05 2.26572e-06 2.85857e-06 -9.10134e-06 0.00113555 -0.00132622 -0.000362056 0.004 730.022 -5.75996 
84 1 1 0.023272 -0.0118009 0.0106603 0 0 0 2.13174e-06 -1.14881e-05 -1.9924e-05 4.01914e-06 4.5994e-06 -8.40826e-06 0.000868375 -0.00107856 0.000156945 0.004 773.76 -3.89831 
180 1 1 0.0438204 -0.0140997 0.0110465 0 0 0 1.16398e-06 -3.54061e-06 -2.34359e-06 1.97615e-06 1.36328e-06 -1.1264e-06 -0.000131207 -0.000318473 7.3224e-05 0.004 798.883 -0.432932 
103 1 1 0.0174441 -0.00636565 0.0105707 0 0 0 2.84677e-09 -1.16117e-05 -2.18104e-05 3.50324e-06 4.65608e-06 -1.02591e-05 0.000155927 -0.00136306 -0.000414299 0.004 747.048 -5.35792 
156 1 1 0.0308891 -0.00946114 0.01063 0 0 0 2.88985e-06 -1.09157e-05 -1.54982e-05 3.69667e-06 3.51978e-06 -5.02688e-06 -0.000152452 0.000394043 -0.000349293 0.004 788.663 -2.34064 
197 1 1 -0.045783 -0.0047112 0.0107571 0 0 0 -3.8419e-06 -1.79707e-07 -2.92487e-06 -7.26603e-07 7.55679e-07 -1.59114e-06 -8.84951e-05 0.000233682 0.000287803 0.004 300.929 0.358218 
87 1 1 -0.0386059 -0.00381154 0.0141381 0 0 0 -7.78966e-06 2.27433e-06 -9.16251e-06 7.01572e-07 1.56927e-06 -2.70222e-06 -0.00101111 -0.000190422 0.000189634 0.004 302.523 0.750329 
130 1 1 -0.0313597 -0.00387387 0.0107775 0 0 0 -1.32683e-05 -1.12871e-06 -1.01628e-05 3.43809e-06 7.77095e-06 -2.7052e-06 0.00115168 -0.000458276 -0.00137209 0.004 309.159 1.87086 
604 1 1 -0.0224595 -0.000300925 0.0110796 0 0 0 -1.53658e-05 -4.17601e-06 -2.78184e-05 3.02042e-06 1.11124e-05 -4.16935e-06 0.000999723 -0.000758695 -0.000433843 0.004 341.05 4.03247 
146 1 1 -0.0155078 -0.00400733 0.0103914 0 0 0 -1.58693e-05 -9.35521e-06 -2.96948e-05 2.38913e-06 1.06711e-05 -4.49962e-06 0.00223533 -0.000946988 -0.00109475 0.004 385.486 4.6274 
57 1 1 -0.00517523 -0.00310614 0.0111955 0 0 0 -1.45728e-05 -8.51511e-06 -4.05174e-05 1.70772e-06 1.12759e-05 -9.84852e-06 -0.00276699 0.000216949 0.000268387 0.004 495.624 2.2661 
493 1 1 0.0116956 -0.000875088 0.0103667 0 0 0 -1.6072e-06 -1.11034e-05 -2.67418e-05 3.73483e-06 5.12216e-06 -9.04688e-06 0.00161645 1.28328e-05 0.000674516 0.004 706.332 -5.68551 
31 1 1 0.0250484 -0.00405419 0.0104601 0 0 0 3.20675e-06 -1.17766e-05 -1.7931e-05 4.67653e-06 5.02815e-06 -7.26405e-06 0.000873979 -0.000125508 0.000148427 0.004 774.663 -3.73971 
588 1 1 0.0325998 -0.00174526 0.0105431 0 0 0 4.42301e-06 -1.02249e-05 -1.31661e-05 4.46478e-06 4.18221e-06 -2.97308e-06 0.000224363 -5.91981e-05 -6.72078e-05 0.004 788.601 -2.27145 
63 1 1 0.045924 -0.0032788 0.0119253 0 0 0 1.44443e-06 -3.68434e-06 -4.82278e-06 2.85047e-06 3.44798e-06 -6.79052e-07 0.000477071 -0.00144974 0.000625225 0.004 798.794 -0.435147 
107 1 1 -0.00850634 -0.0452731 0.017677 0 0 0 -5.39787e-06 -5.15301e-06 -8.76119e-06 2.75866e-07 1.79237e-06 2.50159e-07 -0.00097386 0.00124293 0.000840739 0.004 454.202 4.03026 
222 1 1 -0.0014196 -0.0418101 0.0171129 0 0 0 -7.30536e-06 -1.16311e-05 -1.95818e-05 -4.41581e-08 5.39437e-06 1.13325e-06 -0.000415754 0.000477804 -0.00151195 0.004 536.674 0.762569 
142 1 1 0.00615864 -0.0401388 0.0154212 0 0 0 -6.2067e-06 -1.32923e-05 -2.0278e-05 1.90516e-07 4.86562e-06 1.11035e-06 0.000935578 -0.000425735 0.000716987 0.004 617.797 -3.03995 
172 1 1 0.0116013 -0.0446446 0.0189547 0 0 0 -4.43039e-06 -8.71649e-06 -1.26709e-05 6.87889e-07 3.09857e-06 8.99152e-07 -0.00180185 -0.00136067 0.00143998 0.004 669.749 -5.3024 
109 1 1 0.0204197 -0.0412797 0.0183142 0 0 0 -4.18228e-06 -3.58943e-06 -5.1243e-06 -4.79468e-07 7.30166e-07 -7.93545e-07 -0.000204332 -0.000944502 0.00111858 0.004 747.288 -5.77644 
150 1 1 -0.0273271 -0.0370832 0.0158763 0 0 0 -5.03256e-06 -3.9067e-06 -6.22492e-06 2.83061e-07 1.89801e-06 -3.59871e-07 -0.000331648 0.000363467 -1.67465e-05 0.004 323.315 3.80819 
38 1 1 -0.0197788 -0.0373719 0.0182824 0 0 0 -4.98584e-06 -6.66151e-06 -1.61351e-05 1.9612e-06 4.16168e-06 -2.81711e-06 -0.00149904 0.00214893 -0.000536722 0.004 350.354 5.22605 
199 1 1 -0.0118545 -0.0370266 0.01765 0 0 0 -5.9603e-06 -1.15925e-05 -2.23335e-05 2.14562e-06 4.5092e-06 -2.93243e-06 0.000289492 -0.00182303 -0.000252728 0.004 388.855 5.75897 
93 1 1 0.0137643 -0.0377759 0.0156808 0 0 0 -6.80866e-06 -1.11562e-05 -1.72293e-05 7.45764e-07 3.2733e-06 -1.95341e-06 -0.000503659 -0.00199801 0.00107161 0.004 696.826 -5.69352 
64 1 1 0.0280176 -0.0365092 0.0179286 0 0 0 -1.14927e-06 -5.44317e-06 -6.36712e-06 -2.3499e-06 -4.29489e-07 -3.12292e-06 -0.000747092 -0.00112084 0.000919317 0.004 781.219 -3.54615 
22 1 1 -0.0327402 -0.032422 0.0194567 0 0 0 -6.70714e-06 -4.39557e-06 -8.60509e-06 -7.87402e-07 2.66507e-06 -8.0264e-07 -0.000933504 0.000662527 0.000378678 0.004 311.571 2.4583 
174 1 1 -0.0224319 -0.0302105 0.0162617 0 0 0 -1.06957e-05 -1.05258e-05 -1.88651e-05 4.26773e-07 5.33561e-06 -2.64989e-06 -0.000225175 0.000861102 0.0010815 0.004 337.519 4.71865 
32 1 1 -0.0042831 -0.0343967 0.0166775 0 0 0 -1.03323e-05 -1.49913e-05 -2.69886e-05 1.08051e-07 5.98965e-06 -1.63049e-06 -0.000294284 -0.00116436 0.00159006 0.004 495.245 2.7481 
128 1 1 0.0034746 -0.033132 0.017996 0 0 0 -1.20289e-05 -1.75233e-05 -3.14827e-05 -2.33284e-07 7.99225e-06 -3.19892e-06 -0.000631598 -0.000659233 -0.000124623 0.004 582.76 -1.39834 
88 1 1 0.0113687 -0.0304834 0.01771 0 0 0 -9.10828e-06 -1.70131e-05 -2.87068e-05 8.93906e-08 5.52677e-06 -5.73821e-06 -0.000241334 -0.000902439 -0.000436249 0.004 691.318 -5.39324 
137 1 1 0.0208046 -0.0338186 0.0156334 0 0 0 -5.37958e-06 -8.43649e-06 -1.20502e-05 2.49403e-06 2.63228e-06 -9.3172e-07 -0.00179589 -0.00289275 0.000772202 0.004 760.669 -5.38005 
154 1 1 0.033982 -0.0311387 0.0180551 0 0 0 -5.36608e-07 -5.38416e-06 -3.91466e-06 2.17283e-07 5.41506e-07 -1.94301e-06 -0.000212334 -0.000626757 0.000959161 0.004 791.666 -1.85324 
52 1 1 -0.031991 -0.0252343 0.0161626 0 0 0 -1.04468e-05 -9.41583e-06 -1.76534e-05 -1.07055e-06 2.83965e-06 -3.85069e-06 -0.000354475 0.000228125 -0.000426551 0.004 311.504 2.27268 
80 1 1 -0.00960097 -0.0265066 0.0175805 0 0 0 -1.96735e-05 -1.66234e-05 -3.81988e-05 -1.36694e-06 9.13632e-06 -6.01408e-06 0.00128884 -0.000736434 -0.00122953 0.004 426.109 4.76264 
125 1 1 -0.00117361 -0.0267002 0.0173743 0 0 0 -1.73031e-05 -2.23185e-05 -3.2709e-05 -8.63846e-07 9.51035e-06 -6.69441e-06 0.000866349 0.000471695 0.000485679 0.004 530.903 1.32907 
72 1 1 0.0179273 -0.0264316 0.0156371 0 0 0 -8.41388e-06 -1.54711e-05 -2.84174e-05 1.88272e-06 4.23627e-06 -7.93901e-06 -0.00101302 0.000459862 0.000550081 0.004 741.632 -5.75811 
34 1 1 0.0269647 -0.0287251 0.0154182 0 0 0 4.72723e-07 -1.12825e-05 -9.82044e-06 2.47334e-07 2.03526e-06 -3.63407e-06 -0.000635379 -0.000270906 -0.000193886 0.004 781.119 -3.0505 
218 1 1 -0.0395968 -0.0234663 0.0176916 0 0 0 -5.38816e-06 -4.44559e-06 -8.47956e-06 -6.72668e-07 1.38601e-06 -2.16178e-06 0.000423808 0.0013831 -0.000899191 0.004 303.74 1.04091 
70 1 1 -0.0247175 -0.0230258 0.0185786 0 0 0 -1.54899e-05 -1.23882e-05 -2.79958e-05 -9.26041e-07 7.53432e-06 -7.15706e-06 -0.00172755 0.000842108 0.000272919 0.004 327.733 3.6075 
132 1 1 -0.0171323 -0.0242635 0.0164745 0 0 0 -1.64834e-05 -1.20231e-05 -3.11475e-05 -7.72555e-07 8.3399e-06 -5.37243e-06 -0.00115676 0.00139674 0.000535116 0.004 359.224 4.97227 
196 1 1 0.0071665 -0.0237891 0.0170602 0 0 0 -9.83299e-06 -2.4352e-05 -3.80718e-05 1.68096e-06 8.87156e-06 -1.16393e-05 0.00323556 -0.00260616 0.00201072 0.004 656.508 -4.10926 
362 1 1 0.0243874 -0.0214293 0.0170618 0 0 0 -4.10822e-06 -1.73499e-05 -2.92563e-05 -1.10394e-06 5.78155e-06 -1.03531e-05 -0.0013246 -0.00505909 0.00145294 0.004 780.811 -3.19031 
49 1 1 0.0387627 -0.0248027 0.0179815 0 0 0 -1.17938e-06 -4.32045e-06 -3.5162e-06 3.01905e-07 2.01004e-07 -2.3018e-06 -0.000202498 -0.000325276 -0.00021445 0.004 796.258 -1.08373 
173 1 1 -0.0431191 -0.0163148 0.0177078 0 0 0 -4.66367e-06 -1.75888e-06 -6.42661e-06 8.97771e-09 1.60858e-06 -2.92855e-06 0.000104094 0.00125567 -0.000291772 0.004 302.752 0.789478 
50 1 1 -0.0295064 -0.016766 0.0182812 0 0 0 -1.51563e-05 -1.23523e-05 -2.69793e-05 -2.53645e-07 8.08712e-06 -8.39251e-06 7.08001e-05 0.00105622 -0.000188034 0.004 314.577 2.39852 
202 1 1 -0.0134618 -0.0172168 0.0161108 0 0 0 -2.11157e-05 -2.01913e-05 -4.5278e-05 -4.78175e-07 1.01913e-05 -8.29619e-06 0.000788214 0.000670229 -0.00106147 0.004 393.84 4.91689 
86 1 1 -0.00524865 -0.0199158 0.0183758 0 0 0 -2.17297e-05 -2.0321e-05 -4.55911e-05 -4.60098e-08 1.18594e-05 -9.8483e-06 -0.00275499 -0.000967382 0.00101791 0.004 488.137 2.98822 
129 1 1 0.0138597 -0.0196296 0.0162861 0 0 0 -9.71063e-06 -1.81157e-05 -3.38479e-05 2.37895e-06 5.32993e-06 -1.31979e-05 -0.00119166 0.00202907 -0.000502732 0.004 717.219 -5.28621 
82 1 1 0.0291401 -0.0151359 0.0159325 0 0 0 -5.92278e-07 -1.26282e-05 -2.12153e-05 3.46193e-07 4.52241e-06 -9.27626e-06 4.6712e-05 -0.00109321 -0.000138205 0.004 788.881 -2.2938 
1 1 1 0.0424682 -0.0178049 0.0178803 0 0 0 -9.06662e-07 -4.78749e-06 -3.0517e-06 4.03942e-08 4.65657e-07 -2.40319e-06 0.000355802 -0.000485259 0.000416187 0.004 797.991 -0.668949 
168 1 1 -0.0224798 -0.0136304 0.016417 0 0 0 -1.83565e-05 -1.37657e-05 -3.55819e-05 1.35539e-07 1.0799e-05 -8.01468e-06 -0.000625952 0.000955095 0.00017607 0.004 336.547 4.08786 
121 1 1 -0.00514896 -0.0120185 0.017457 0 0 0 -2.36886e-05 -1.93242e-05 -5.10942e-05 3.20913e-07 1.28023e-05 -1.23639e-05 0.00212614 0.00052695 -0.00124844 0.004 500.312 2.1044 
28 1 1 0.00814311 -0.0139814 0.0183179 0 0 0 -1.76249e-05 -2.5254e-05 -5.4832e-05 -2.4928e-07 1.38478e-05 -1.55997e-05 -0.000861946 -0.000994036 -0.000796055 0.004 670.829 -5.26365 
42 1 1 0.0200408 -0.0148105 0.0172662 0 0 0 -8.05492e-06 -2.25079e-05 -4.3356e-05 3.98006e-07 8.13528e-06 -1.67576e-05 0.000799645 -0.00186039 -0.000518631 0.004 760.461 -4.42378 