ITEM: TIMESTEP
31200
ITEM: NUMBER OF ATOMS
890
ITEM: BOX BOUNDS mm mm mm
-0.05 0.05
-0.05 0.05
0 0.15
ITEM: ATOMS id type type x y z ix iy iz vx vy vz fx fy fz omegax omegay omegaz radius f_Temp[0] f_heatFlux[0] 
59 1 1 -0.000715559 -0.0460982 0.00395598 0 0 0 -4.28041e-06 8.1146e-07 -1.36983e-06 9.30338e-06 4.0078e-06 1.12112e-06 -7.3418e-05 -0.00151665 0.0010175 0.004 533.315 0.985477 
170 1 1 -0.0173498 -0.0426414 0.00397301 0 0 0 -1.5816e-06 -6.52724e-07 -2.98002e-07 4.09235e-06 3.90899e-06 2.75818e-06 0.000659391 0.000350753 -0.000313544 0.004 377.563 5.52202 
15 1 1 -0.00975016 -0.0449638 0.00393397 0 0 0 -5.11721e-06 -2.95274e-06 2.51205e-06 5.60823e-06 4.85681e-06 -1.85591e-06 0.000644017 -0.00177896 -0.000110892 0.004 416.554 5.20652 
116 1 1 0.0064876 -0.0428197 0.00395869 0 0 0 -3.58405e-06 4.92613e-06 1.53008e-06 6.96567e-06 9.70729e-06 -8.00846e-08 -0.00127079 -0.000428582 -0.000543181 0.004 626.351 -2.81675 
158 1 1 0.0143627 -0.0437625 0.00389981 0 0 0 -1.92773e-06 6.83755e-07 1.97788e-06 5.79713e-06 4.89257e-06 2.73431e-07 0.00012448 -0.00018002 4.4571e-06 0.004 686.633 -4.80583 
98 1 1 0.0216779 -0.0406527 0.00394261 0 0 0 -7.59104e-07 -1.69783e-07 2.23917e-06 5.16728e-06 4.04538e-07 9.52817e-07 0.000424615 -0.000224392 -7.85178e-05 0.004 732.678 -5.06787 
169 1 1 -0.0244315 -0.0390659 0.00391426 0 0 0 1.12307e-06 3.26395e-06 3.27401e-06 5.69567e-06 5.15067e-06 4.88235e-06 2.45942e-05 -0.000185468 -0.000247477 0.004 341.248 4.49307 
89 1 1 -0.011812 -0.0369235 0.00395462 0 0 0 -1.08596e-06 7.30517e-07 3.18577e-06 7.36211e-06 2.25083e-06 3.00825e-06 -9.12907e-05 -0.000365308 -0.000314465 0.004 411.478 4.45192 
152 1 1 -0.00418343 -0.0390223 0.00390524 0 0 0 -3.99275e-06 -3.29785e-07 3.65154e-06 7.68935e-06 5.85338e-06 1.5492e-06 0.00125707 -7.8454e-05 -0.000218227 0.004 489.885 2.37225 
23 1 1 0.0153483 -0.035882 0.0039113 0 0 0 -2.70333e-07 9.68791e-07 7.41194e-06 1.1144e-05 5.34845e-06 2.2492e-07 0.000694245 0.000670884 -0.000290542 0.004 699.579 -5.00811 
118 1 1 -0.0307533 -0.0342397 0.00392725 0 0 0 1.18667e-06 1.34601e-06 1.91118e-06 1.44585e-06 7.34448e-06 3.99779e-06 1.58787e-05 0.000189444 1.53714e-05 0.004 318.033 3.04811 
30 1 1 -0.0188787 -0.0333717 0.00395274 0 0 0 4.13856e-06 6.24722e-06 8.33063e-06 1.14406e-05 6.80506e-06 6.36053e-06 -1.84284e-05 0.00109277 -0.000780067 0.004 356.017 4.55407 
215 1 1 -0.00603634 -0.0313238 0.00390661 0 0 0 -3.6809e-07 3.25958e-06 1.18744e-05 2.17357e-05 1.98078e-06 2.628e-06 8.43187e-05 -0.000637881 -0.00176241 0.004 462.029 3.30001 
74 1 1 0.00184138 -0.0338192 0.0039068 0 0 0 -1.13158e-06 -2.72163e-07 1.14769e-05 1.35066e-05 8.15022e-06 3.51117e-06 0.000755309 -0.000406028 -0.00111171 0.004 558.803 -0.188204 
24 1 1 0.00917854 -0.0308341 0.00392035 0 0 0 9.2802e-07 2.89806e-06 1.41674e-05 1.30845e-05 3.8252e-06 4.8467e-06 -0.000641569 0.000668645 0.000744154 0.004 652.962 -3.67515 
198 1 1 0.0259423 -0.0339523 0.00395551 0 0 0 3.5359e-06 -8.76189e-07 6.96582e-06 7.99374e-06 1.70679e-06 4.68107e-06 0.00148895 0.00174572 -0.000335922 0.004 763.217 -4.222 
161 1 1 0.0335301 -0.0316074 0.00391358 0 0 0 -3.29471e-07 3.2138e-06 3.63863e-06 4.58079e-06 2.98252e-06 2.22325e-06 -0.000279178 0.000143256 0.000100534 0.004 781.497 -2.94588 
8 1 1 -0.0322699 -0.0264156 0.00398404 0 0 0 2.46753e-06 2.74716e-06 4.4077e-06 -7.10781e-07 2.33043e-06 5.3306e-06 0.000189379 -0.00109439 3.71386e-06 0.004 314.173 2.51178 
12 1 1 -0.0244143 -0.0276959 0.00386437 0 0 0 5.61749e-06 7.1844e-06 1.0642e-05 6.03505e-06 4.2858e-06 1.00858e-05 -0.00142966 0.000612939 0.000988407 0.004 332.825 3.8759 
188 1 1 -0.0131743 -0.0277763 0.00396588 0 0 0 4.91467e-06 7.70481e-06 9.61444e-06 2.37633e-05 1.53507e-05 7.54705e-06 -0.000373341 0.00130872 -2.88724e-05 0.004 375.806 4.91293 
77 1 1 -0.000100265 -0.0260809 0.00389416 0 0 0 7.37387e-06 2.54423e-06 1.97546e-05 9.97783e-06 3.0654e-06 5.38705e-06 0.000729435 0.0011708 0.000410615 0.004 539.555 0.493722 
113 1 1 0.0165643 -0.0280203 0.0038866 0 0 0 4.45006e-06 -1.17308e-06 9.2572e-06 1.06914e-05 6.4226e-06 3.33723e-06 0.000555172 0.000977539 -0.00203249 0.004 716.08 -4.67131 
183 1 1 0.0384541 -0.0253742 0.00393848 0 0 0 -2.68584e-07 3.71436e-06 4.5771e-06 2.49082e-06 8.3999e-07 2.32115e-06 -0.000117893 0.000475031 -0.00105572 0.004 791.169 -1.82625 
162 1 1 -0.0396311 -0.023418 0.00390783 0 0 0 2.41112e-06 2.31164e-06 1.6288e-06 3.39916e-06 6.76844e-06 7.53815e-07 -0.000510919 0.000553235 0.000395621 0.004 306.06 1.40605 
53 1 1 -0.027206 -0.0202486 0.00395166 0 0 0 1.30866e-05 3.35424e-07 8.05244e-06 8.98238e-06 2.70086e-06 1.43491e-05 0.000777924 0.00297903 -0.00293424 0.004 321.139 3.09046 
148 1 1 -0.0187585 -0.0220642 0.00393815 0 0 0 9.78135e-06 1.33855e-05 1.41637e-05 1.06124e-05 -2.12865e-07 1.2886e-05 -0.00158595 0.00121706 -0.00141595 0.004 351.662 4.87762 
195 1 1 -0.00727822 -0.02155 0.00394565 0 0 0 1.93238e-07 5.14935e-06 1.87649e-05 2.21109e-05 9.44131e-06 7.376e-06 -0.00163166 -0.00116894 -0.00233899 0.004 439.56 4.72665 
179 1 1 0.00736627 -0.0231031 0.00394273 0 0 0 1.78183e-06 2.24053e-06 1.47549e-05 8.5213e-07 1.52045e-06 8.46296e-06 -0.000282405 -0.000630765 -0.000354771 0.004 652.902 -3.93942 
95 1 1 0.0148506 -0.02031 0.00393211 0 0 0 5.05434e-06 9.13841e-07 1.71507e-05 5.09694e-06 8.89741e-06 5.37324e-06 -0.000302314 -0.000139929 0.00143807 0.004 711.831 -4.68454 
76 1 1 0.0230027 -0.0233057 0.00397473 0 0 0 6.46749e-06 2.576e-06 1.24624e-05 9.56262e-06 3.03912e-06 4.92227e-06 0.000720049 -0.00014341 0.0025692 0.004 766.93 -3.85238 
100 1 1 0.0325586 -0.0200895 0.00388596 0 0 0 1.31008e-06 9.09558e-06 1.243e-05 7.80589e-06 2.28779e-06 5.82842e-06 -0.00116085 0.000977327 0.000683172 0.004 786.448 -2.34025 
65 1 1 -0.0430742 -0.0162802 0.00393145 0 0 0 2.82129e-06 1.96689e-06 2.40529e-06 2.74645e-07 6.35223e-06 -8.10235e-07 -6.47732e-05 -0.000187687 -0.000324849 0.004 303.423 0.912809 
102 1 1 -0.0351583 -0.0155178 0.00394448 0 0 0 1.01076e-05 3.96917e-06 4.30559e-06 3.0146e-06 2.5374e-05 6.35178e-06 -2.23748e-05 0.0010687 0.00118342 0.004 308.102 1.63962 
213 1 1 -0.0132588 -0.0162738 0.00397364 0 0 0 1.34464e-05 8.9737e-06 1.21628e-05 3.62831e-06 6.78737e-06 1.10678e-05 -0.000919504 0.00279131 0.000464736 0.004 377.382 5.48453 
10 1 1 0.00114843 -0.0182524 0.00475001 0 0 0 5.62728e-06 3.16396e-06 2.73841e-05 -4.78182e-06 2.18149e-06 7.42927e-06 -0.0011381 0.00464618 4.65264e-06 0.004 571.046 -0.919541 
5 1 1 0.00879788 -0.0152553 0.00390315 0 0 0 4.67815e-06 1.38809e-07 1.7748e-05 4.59238e-06 6.86111e-06 8.83224e-06 -0.000230939 0.000557442 -0.0016474 0.004 663.702 -3.97044 
96 1 1 0.0211693 -0.0155242 0.00395652 0 0 0 1.45096e-06 7.39683e-06 1.70642e-05 8.03224e-06 -4.70119e-07 -1.3582e-06 -0.00012697 -0.000282322 0.000314106 0.004 760.323 -3.94335 
167 1 1 0.0421923 -0.0183683 0.00392112 0 0 0 -1.39679e-06 1.90091e-06 3.17866e-06 -6.32217e-07 1.7476e-06 3.34757e-06 -0.000337586 -0.000404524 0.000363776 0.004 796.632 -0.913155 
124 1 1 -0.029011 -0.0104716 0.0039479 0 0 0 1.9673e-05 1.12884e-07 -3.3796e-07 2.30619e-05 3.38233e-06 3.97053e-06 -2.19222e-05 0.00356411 -0.00171235 0.004 318.876 2.76519 
220 1 1 -0.021776 -0.0144543 0.00398043 0 0 0 1.59336e-05 -6.2581e-06 9.1525e-06 1.8816e-05 -4.74557e-06 1.06968e-05 0.00351588 0.00217946 0.0015452 0.004 338.672 3.86058 
144 1 1 -0.0053552 -0.0138038 0.00388179 0 0 0 -2.83362e-06 1.61672e-06 2.76241e-05 8.721e-06 5.57996e-06 7.65385e-06 -0.000200947 -0.00128572 0.000508058 0.004 492.686 2.11752 
26 1 1 0.00255569 -0.0104629 0.00390568 0 0 0 1.94304e-06 3.47447e-07 2.03953e-05 7.3719e-06 4.62145e-06 7.17082e-06 0.000398106 0.00155327 0.00136891 0.004 577.449 -1.13907 
194 1 1 0.0287352 -0.013103 0.00393081 0 0 0 1.41302e-06 7.39793e-06 1.56284e-05 2.44894e-06 -3.33768e-07 4.98728e-06 -0.000540787 7.90359e-05 -0.0008012 0.004 782.434 -2.69511 
37 1 1 0.03667 -0.0122307 0.00393306 0 0 0 -1.31879e-07 7.91407e-06 1.2003e-05 1.07285e-05 -3.71331e-06 4.15765e-06 -0.00209089 -5.45077e-05 0.0017137 0.004 794.379 -1.28898 
219 1 1 0.0447285 -0.0108715 0.00390888 0 0 0 -1.4151e-06 2.81209e-06 2.18204e-06 -1.87257e-06 2.48407e-06 2.88047e-06 -0.000799618 -0.000203139 -0.000486672 0.004 798.417 -0.52753 
636 1 1 -0.0451998 -0.00864275 0.0039177 0 0 0 -4.09303e-07 2.56704e-06 1.80457e-06 1.62322e-05 3.77503e-06 4.88063e-06 -0.00024757 -0.000145828 0.00106131 0.004 301.646 0.526685 
39 1 1 -0.0161467 -0.00885108 0.00388988 0 0 0 3.11938e-06 3.42376e-06 1.89266e-05 3.92937e-06 1.75548e-06 1.25808e-05 -0.000728965 -4.13664e-05 0.0021544 0.004 378.768 4.25116 
171 1 1 -0.00395988 -0.00597828 0.00392045 0 0 0 -5.92221e-07 -4.445e-07 1.89018e-05 5.61797e-06 5.49748e-07 6.65765e-06 -0.0011114 0.000238361 -0.00115808 0.004 500.149 1.7131 
200 1 1 0.0146298 -0.00986517 0.00396379 0 0 0 7.0944e-06 3.00424e-06 1.64167e-05 -2.089e-06 -3.38957e-06 -1.72893e-06 0.00090356 0.000610957 0.00191889 0.004 719.713 -4.87478 
21 1 1 0.022252 -0.0076216 0.00394337 0 0 0 1.35185e-06 8.86457e-06 1.83831e-05 1.16038e-06 -3.29938e-06 1.73056e-06 -0.00103131 -0.00131038 0.000172209 0.004 763.375 -3.96029 
17 1 1 0.0298456 -0.00520715 0.00394876 0 0 0 1.69797e-06 8.61533e-06 1.36248e-05 -3.64241e-06 1.08184e-06 5.11638e-06 -0.00124975 0.000191605 0.000666731 0.004 782.95 -2.77654 
477 1 1 -0.0445832 -0.000710829 0.00396284 0 0 0 5.26678e-06 3.00996e-06 2.87447e-06 2.93822e-05 8.30989e-06 1.19038e-05 -0.000132825 0.00113823 -0.00199813 0.004 301.661 0.498602 
140 1 1 -0.0352672 -0.0037183 0.00387245 0 0 0 1.14838e-05 -1.60294e-06 7.40385e-06 -1.78686e-06 2.21926e-05 1.5838e-05 0.00305814 0.00249582 -0.00644803 0.004 310.01 1.70376 
119 1 1 -0.0273891 -0.00269833 0.00396388 0 0 0 7.43335e-06 -2.29281e-06 -8.14302e-07 2.05238e-06 4.87726e-06 2.25415e-05 0.000713268 -0.000196242 0.00535951 0.004 325.946 3.01309 
207 1 1 -0.0194911 -0.00168728 0.00389509 0 0 0 -7.53718e-07 4.56995e-06 1.61525e-05 -7.50126e-06 4.80702e-06 3.37865e-05 0.000104658 -0.0012439 -0.00178138 0.004 358.938 4.09243 
69 1 1 -0.0111573 -0.0026455 0.00393007 0 0 0 -2.41941e-06 4.83574e-06 1.38481e-05 1.67798e-06 -6.06644e-06 1.20304e-05 -0.000327134 -0.000286984 0.000255101 0.004 421.21 3.96841 
221 1 1 0.008748 -0.00448987 0.00393203 0 0 0 5.7273e-06 1.454e-06 2.08229e-05 -1.33951e-07 8.73999e-06 -2.75925e-06 -0.00143939 0.0021428 0.000428297 0.004 676.753 -4.50309 
457 1 1 0.0163505 -0.00208057 0.0039593 0 0 0 -2.34644e-06 1.10883e-05 2.00921e-05 -2.11923e-06 2.78929e-06 8.99299e-07 -0.00390307 -0.00258107 0.000863326 0.004 732.948 -5.05035 
155 1 1 0.0378912 -0.00224684 0.00393694 0 0 0 -3.71023e-06 5.77953e-06 1.07516e-05 1.52869e-06 -7.17665e-06 5.75066e-06 -0.00103182 -0.00110948 1.85598e-05 0.004 794.668 -1.17928 
665 1 1 0.0459183 -0.00307627 0.00394261 0 0 0 -2.83179e-06 2.38592e-06 1.59801e-06 -2.2202e-06 8.12998e-07 1.30216e-06 0.000149977 -0.000717773 0.000581424 0.004 798.293 -0.539533 
120 1 1 0.00918484 -0.0371091 0.00876938 0 0 0 7.28651e-07 3.39124e-07 1.13332e-05 1.67037e-05 7.56522e-06 1.21987e-06 0.00263232 8.41031e-05 -0.00166073 0.004 656.666 -4.00065 
9 1 1 -0.0247147 -0.033359 0.00937623 0 0 0 4.41019e-06 6.93857e-06 1.08017e-05 1.0868e-05 1.45654e-05 9.16559e-06 0.000948191 -0.00129758 -0.000165794 0.004 334.007 4.10587 
101 1 1 -0.0188615 -0.0277191 0.00955148 0 0 0 8.40747e-06 1.30366e-05 1.82859e-05 1.45326e-05 3.42375e-06 1.50507e-05 0.000366611 -0.000644786 -0.000862493 0.004 351.281 4.61266 
48 1 1 0.0221998 -0.0293138 0.00920033 0 0 0 2.53552e-06 2.11614e-06 1.40144e-05 1.42965e-05 4.07742e-06 6.24576e-06 -0.00231947 -0.00178445 0.00162613 0.004 750.941 -4.21029 
75 1 1 0.02936 -0.0261745 0.00787423 0 0 0 4.71242e-06 7.17293e-06 1.51691e-05 1.39792e-05 4.27472e-06 9.79156e-06 0.00175135 0.000610535 -0.00114073 0.004 778.199 -3.03519 
46 1 1 -0.0327913 -0.0205809 0.00958348 0 0 0 1.2733e-05 1.1798e-05 1.13134e-05 6.63236e-06 2.47989e-05 2.06408e-05 -0.00133642 -0.00254027 -0.000498787 0.004 314.019 2.34576 
33 1 1 -0.013034 -0.0220249 0.00949571 0 0 0 8.56227e-06 7.65243e-06 2.51745e-05 2.69783e-05 9.34251e-06 7.53218e-06 0.000947643 -0.00277403 -0.00275777 0.004 382.432 4.82206 
11 1 1 0.02689 -0.0187447 0.00924464 0 0 0 6.57226e-06 1.11017e-05 2.73125e-05 1.26777e-05 1.68657e-06 1.09042e-05 0.000243282 0.00198732 0.00148441 0.004 774.476 -3.25786 
71 1 1 -0.0372751 -0.00954699 0.00876622 0 0 0 2.69718e-06 4.99756e-06 3.80948e-06 -1.20981e-05 2.53479e-05 8.64878e-06 -0.0011963 -0.000287075 0.000300389 0.004 305.816 1.25408 
62 1 1 -0.0228082 -0.0077137 0.00814035 0 0 0 9.29665e-06 3.55839e-06 1.36036e-05 8.50866e-06 -1.5938e-05 3.81604e-05 -0.000834734 -0.00519749 -0.000952967 0.004 340.06 3.80628 
19 1 1 -0.0097068 -0.00905633 0.00849068 0 0 0 -2.85882e-06 1.02567e-05 3.51325e-05 1.31985e-05 -7.81728e-07 1.53656e-05 -0.00142115 0.000205259 -0.00141509 0.004 453.172 2.93411 
187 1 1 0.00796699 -0.00988205 0.00975753 0 0 0 -1.95003e-05 -3.22126e-06 3.37573e-05 3.79642e-05 2.44522e-05 1.09475e-05 0.00176372 -0.0121018 0.00289495 0.004 664.775 -5.28431 
157 1 1 0.0395816 -0.00751946 0.00963114 0 0 0 -8.46581e-06 9.87062e-06 1.75091e-05 2.17304e-06 -3.364e-06 1.08129e-05 0.000616442 -0.00045226 0.000611559 0.004 796.856 -0.847634 
18 1 1 0.00229104 -0.004049 0.00852644 0 0 0 1.09322e-06 5.99668e-07 3.10093e-05 9.52485e-06 9.01704e-06 1.18115e-06 -0.000414502 -0.00058653 -0.000151745 0.004 574.685 -1.00798 
185 1 1 -0.00531149 -0.045735 0.0104438 0 0 0 -3.29129e-07 -2.00089e-06 2.74091e-07 8.60116e-06 5.99704e-06 -4.67609e-06 -0.000294128 0.00410014 0.000621125 0.004 479.774 2.80559 
83 1 1 0.00256735 -0.0459473 0.0112661 0 0 0 1.36706e-06 -4.80303e-06 -3.117e-06 1.003e-05 4.03079e-06 -7.5897e-06 2.75885e-05 -0.00372457 -0.000811796 0.004 569.495 -1.15163 
58 1 1 -0.0218568 -0.0405821 0.0112769 0 0 0 -2.24958e-07 3.5967e-06 3.63672e-06 1.34746e-05 2.98115e-06 4.56404e-07 0.000535546 0.000259118 0.000531706 0.004 345.716 4.71533 
105 1 1 -0.013586 -0.043966 0.0108788 0 0 0 -7.27082e-06 -1.54848e-06 -1.59383e-06 8.79099e-06 9.09045e-06 6.84056e-06 -0.000649064 -0.00143414 0.000777643 0.004 386.359 6.37755 
223 1 1 0.0103956 -0.0448674 0.0106706 0 0 0 6.04764e-07 -3.6155e-06 6.05505e-06 9.48621e-06 1.2239e-06 -3.36174e-06 0.00115503 0.00165246 0.000144318 0.004 648.309 -3.9225 
217 1 1 0.0179432 -0.0424253 0.0108281 0 0 0 -3.50726e-06 -2.25988e-06 5.56924e-06 7.96506e-06 -2.7115e-06 3.73431e-06 0.00177933 -9.35246e-05 0.000786982 0.004 706.825 -5.05286 
6 1 1 -0.0162615 -0.0350312 0.0113114 0 0 0 -1.12798e-06 5.87906e-06 1.82098e-05 2.91156e-05 1.67894e-06 -1.03422e-05 0.00112088 -0.00387061 -0.000232207 0.004 373.576 4.90764 
151 1 1 -0.0080131 -0.0382603 0.0108115 0 0 0 -5.82102e-06 -2.23644e-06 9.88833e-06 2.47084e-05 1.24303e-05 2.91669e-06 0.0011521 -0.000624807 -0.000676564 0.004 441.413 4.12267 
2 1 1 0.000443898 -0.038308 0.010271 0 0 0 -3.44916e-06 -1.07772e-05 7.61475e-06 1.78323e-05 1.20461e-05 -2.20034e-06 0.00281431 -0.000160254 0.00179418 0.004 548.496 0.120886 
117 1 1 0.0249195 -0.0387267 0.0109177 0 0 0 -3.69999e-06 1.71335e-06 4.47562e-06 6.45107e-06 -8.34734e-07 3.48405e-06 -0.000154378 0.000159368 0.000763899 0.004 751.031 -4.57365 
13 1 1 -0.0323455 -0.0327547 0.011537 0 0 0 4.13174e-06 5.26003e-06 4.40163e-06 5.20807e-06 1.94038e-05 9.42256e-06 -0.000388487 0.000293078 -0.000620618 0.004 317.918 2.9549 
193 1 1 -0.00982583 -0.0305006 0.0107685 0 0 0 3.83444e-06 4.70375e-06 3.08138e-05 1.95217e-05 2.16432e-05 -4.93503e-06 0.002441 0.00239833 -0.00121346 0.004 431.301 4.20175 
47 1 1 -0.00133762 -0.0305434 0.0103848 0 0 0 4.00669e-06 1.96453e-06 2.48989e-05 2.42528e-05 1.14634e-05 1.28295e-05 0.00132876 -0.000609489 -0.00424932 0.004 532.92 0.843992 
153 1 1 0.00656457 -0.0300231 0.0113662 0 0 0 6.66745e-06 -2.16078e-06 3.52104e-05 2.60123e-05 9.01714e-06 1.02901e-05 0.00193931 0.00158697 0.00186072 0.004 625.31 -2.87897 
41 1 1 0.0148076 -0.0317914 0.010654 0 0 0 5.202e-06 -6.87566e-08 2.05105e-05 1.60901e-05 2.36862e-07 3.98008e-06 0.000194692 0.00136072 0.000169697 0.004 704.952 -4.93417 
163 1 1 0.0311565 -0.0339183 0.0111114 0 0 0 -4.2084e-06 5.98947e-06 7.71336e-06 5.03791e-06 1.43539e-06 3.97372e-06 0.000879823 -4.29094e-05 -0.000247644 0.004 777.591 -3.14861 
214 1 1 -0.0375015 -0.0268266 0.010714 0 0 0 6.16855e-06 7.17421e-06 5.25685e-06 1.54214e-06 1.90535e-05 8.75162e-06 0.000185359 -0.000876132 0.000617325 0.004 310.161 1.97635 
210 1 1 0.0364693 -0.0280971 0.0111135 0 0 0 -2.84503e-06 5.58698e-06 1.14968e-05 4.61433e-06 2.62734e-06 8.13898e-06 0.00122152 0.00129764 -0.000672073 0.004 790.225 -1.88226 
108 1 1 -0.0260916 -0.0246404 0.0109304 0 0 0 9.7977e-06 1.45583e-05 2.13675e-05 4.89015e-06 7.18842e-06 1.91203e-05 0.000440544 0.000425131 0.000543898 0.004 328.326 3.46069 
40 1 1 -0.00551119 -0.0238697 0.0113285 0 0 0 3.90094e-06 7.0115e-06 3.73785e-05 2.57847e-05 1.34336e-05 1.13196e-05 0.0011037 0.00169925 0.00232157 0.004 476.564 2.73959 
55 1 1 0.00236203 -0.0232851 0.0108248 0 0 0 1.65019e-06 5.69498e-06 4.40509e-05 1.68806e-05 4.36585e-06 1.0303e-05 0.000123761 -0.00485351 -0.00168364 0.004 583.051 -1.19578 
91 1 1 0.0120918 -0.0243836 0.0101856 0 0 0 6.52468e-06 3.83451e-06 2.96062e-05 8.67169e-06 4.23843e-06 1.06686e-05 0.000591038 0.00179654 -0.000862541 0.004 685.989 -4.6994 
112 1 1 0.0192793 -0.020536 0.0105073 0 0 0 1.02023e-05 4.74173e-06 3.75655e-05 7.38654e-06 -6.63608e-07 7.08935e-06 -3.72095e-05 0.000859964 -3.65391e-05 0.004 737.816 -4.824 
178 1 1 0.0318657 -0.0225253 0.0144789 0 0 0 -8.98801e-06 1.13994e-05 2.68792e-05 1.29283e-05 5.01226e-06 1.53581e-05 -0.00167366 -0.00374185 0.000799899 0.004 787.206 -2.23223 
131 1 1 0.0407765 -0.0214682 0.0110513 0 0 0 -1.85639e-06 3.64098e-06 8.9594e-06 4.11048e-06 1.78142e-06 6.97695e-06 0.000269037 0.00134888 -0.000357162 0.004 795.074 -1.18129 
160 1 1 -0.0414721 -0.0199398 0.0108131 0 0 0 3.60482e-06 5.33252e-06 2.98105e-06 -1.1129e-06 1.50052e-05 -9.64109e-07 -0.000391216 0.000320618 0.000429977 0.004 304.313 1.08202 
43 1 1 -0.0361086 -0.0151005 0.0142597 0 0 0 1.6705e-06 1.66607e-05 6.51537e-06 -3.33783e-06 2.4749e-05 -3.43127e-06 -0.000794862 -0.000709127 0.00116383 0.004 308.757 1.61374 
4 1 1 -0.0270343 -0.0151184 0.010074 0 0 0 2.06133e-05 1.32776e-05 1.39181e-05 3.70688e-05 6.34654e-06 3.87952e-06 -0.0042998 -0.00394182 -4.99009e-05 0.004 324.583 3.19696 
104 1 1 -0.020301 -0.0192302 0.0111976 0 0 0 1.34228e-05 1.77497e-05 3.35163e-05 2.43189e-05 -8.62723e-06 1.77789e-05 0.00333289 -0.0011163 -0.00109371 0.004 348.741 4.27563 
20 1 1 -0.00745489 -0.0162218 0.0110955 0 0 0 -4.98745e-06 9.72083e-06 5.11382e-05 3.56866e-05 1.51595e-07 1.58432e-05 -0.00107266 0.00294748 -0.000691232 0.004 469.286 2.78659 
45 1 1 0.000824963 -0.0164512 0.0146046 0 0 0 -6.76766e-06 1.34341e-05 6.00301e-05 2.30379e-05 3.0301e-06 3.30888e-05 0.000931991 0.00143509 0.000447435 0.004 560.269 -0.342647 
159 1 1 0.00795153 -0.0177075 0.011347 0 0 0 2.63309e-06 7.80684e-06 4.43807e-05 6.92231e-06 5.07325e-06 2.05238e-05 -0.00237164 0.000782557 0.000732041 0.004 655.507 -3.75181 
136 1 1 0.034793 -0.0163371 0.0104656 0 0 0 1.22122e-06 1.22176e-05 2.54718e-05 9.0173e-06 2.84151e-06 8.6183e-06 0.00158372 0.000416956 -0.00132856 0.004 791.007 -1.7695 
177 1 1 -0.0443274 -0.0125289 0.0108104 0 0 0 1.48664e-06 4.77879e-06 3.64653e-06 -2.60394e-06 7.28595e-06 2.709e-06 -0.00019892 -0.000293751 0.000290114 0.004 302.802 0.766208 
139 1 1 -0.016821 -0.0121092 0.0110438 0 0 0 6.4494e-06 2.09751e-05 4.40108e-05 2.68093e-05 -5.94375e-06 1.42111e-05 -0.00461745 -0.00202298 0.00403286 0.004 370.542 4.2842 
211 1 1 -0.00209548 -0.0104148 0.0103074 0 0 0 -5.28481e-06 5.76987e-06 4.40345e-05 2.0435e-05 6.64484e-07 1.71283e-05 -0.00237464 -0.00162211 -0.000648143 0.004 524.952 0.82798 
54 1 1 0.0149154 -0.0138957 0.0108309 0 0 0 9.72244e-06 4.63887e-06 2.9987e-05 4.44985e-06 -5.36832e-06 1.17193e-05 -0.00430318 -0.000405907 -0.000323945 0.004 719.93 -5.07502 
84 1 1 0.0232719 -0.0118008 0.0106602 0 0 0 -2.91986e-06 1.51481e-05 3.62504e-05 3.50578e-06 -1.00305e-05 2.53047e-06 -0.00108135 -0.00104822 -0.000476423 0.004 766.535 -3.82593 
180 1 1 0.0438204 -0.0140997 0.0110465 0 0 0 -4.02369e-06 4.95994e-06 7.73827e-06 3.75111e-06 3.74417e-06 9.52693e-06 0.000885494 0.000241936 9.68741e-06 0.004 797.879 -0.647224 
103 1 1 0.017444 -0.00636554 0.0105707 0 0 0 -5.90014e-06 6.56642e-06 4.32629e-05 -8.38373e-07 -1.50054e-05 -6.41945e-06 0.0073857 -0.000930707 0.00294272 0.004 737.556 -4.8221 
156 1 1 0.0308891 -0.00946107 0.01063 0 0 0 2.32274e-06 1.61125e-05 2.93213e-05 7.05858e-07 -1.37646e-07 6.5923e-06 -0.00132873 0.000624378 0.000527321 0.004 784.088 -2.54562 
197 1 1 -0.0457831 -0.00471121 0.010757 0 0 0 2.8777e-06 4.51978e-06 3.51365e-06 1.81585e-05 4.7279e-06 1.54993e-05 2.01249e-06 0.00103555 -0.000402546 0.004 301.761 0.537453 
87 1 1 -0.038606 -0.00381156 0.014138 0 0 0 -2.01225e-06 5.92059e-07 9.96134e-06 1.92081e-05 1.91997e-05 3.00781e-05 0.00135858 -0.00370514 -0.000252941 0.004 304.127 0.965082 
130 1 1 -0.0313597 -0.00387386 0.0107774 0 0 0 2.44785e-05 5.68122e-06 -3.44663e-06 -1.15553e-05 2.93677e-05 2.86963e-05 -0.00722184 0.00267102 0.00546779 0.004 312.822 2.0454 
604 1 1 -0.0224595 -0.000300844 0.0110794 0 0 0 8.55882e-07 1.29897e-05 2.86135e-05 -4.9501e-06 1.54637e-05 5.95506e-05 -0.000736852 0.00173824 0.00244817 0.004 348.261 3.70576 
146 1 1 -0.0155079 -0.00400724 0.0103913 0 0 0 2.04618e-06 1.88062e-05 3.14402e-05 9.65292e-06 1.09529e-05 3.29162e-05 -0.00561477 0.00222543 0.000305 0.004 393.45 3.94581 
57 1 1 -0.00517533 -0.00310601 0.0111954 0 0 0 -4.27624e-06 1.21695e-05 2.5325e-05 2.91135e-05 -2.40573e-06 1.65893e-05 -0.00293559 -0.00170661 -0.000235248 0.004 499.342 1.75459 
493 1 1 0.0116956 -0.000874968 0.0103666 0 0 0 -9.66105e-06 1.34722e-05 3.49769e-05 9.97877e-06 -5.20004e-06 4.22798e-06 -0.00189321 -0.0116414 -0.00288737 0.004 696.613 -4.77291 
31 1 1 0.0250483 -0.00405409 0.0104601 0 0 0 -3.77888e-06 1.60969e-05 3.73449e-05 -2.88279e-06 -1.03136e-05 5.05644e-06 -0.000707621 0.00203003 -5.88613e-05 0.004 767.744 -3.66311 
588 1 1 0.0325998 -0.00174518 0.0105431 0 0 0 -2.5472e-06 1.41353e-05 2.47335e-05 -7.7283e-07 -5.45939e-06 9.81419e-06 0.000859458 -0.000111488 0.000422262 0.004 784.193 -2.43948 
63 1 1 0.045924 -0.00327878 0.0119253 0 0 0 -2.91691e-06 5.02585e-06 7.6411e-06 3.13326e-07 5.34928e-06 9.13304e-06 -0.000139576 0.0020219 -0.00152603 0.004 797.802 -0.630581 
107 1 1 -0.00850634 -0.045273 0.0176771 0 0 0 7.19794e-07 -2.90728e-07 6.72092e-06 7.14998e-06 1.21174e-05 -7.20393e-06 0.000822507 -0.00403902 -0.000795844 0.004 460.988 3.29704 
222 1 1 -0.00141962 -0.04181 0.017113 0 0 0 5.36879e-07 -6.59778e-06 1.61552e-05 1.30161e-05 5.20082e-06 -1.31441e-05 -0.0041036 0.000134024 -0.000785896 0.004 537.899 0.566705 
142 1 1 0.00615862 -0.0401387 0.0154212 0 0 0 -1.98071e-06 -6.3596e-06 1.3815e-05 1.44598e-05 -2.16248e-06 -6.18401e-06 -0.000641891 -0.000697475 0.00239792 0.004 612.697 -2.45748 
172 1 1 0.0116013 -0.0446445 0.0189548 0 0 0 -1.66921e-06 1.03769e-06 1.39221e-05 3.41906e-06 -8.04531e-06 -3.36003e-06 0.00214904 -0.000505001 0.000254389 0.004 660.837 -4.3119 
109 1 1 0.0204197 -0.0412796 0.0183142 0 0 0 -1.98442e-06 -4.03394e-06 5.59101e-06 1.31999e-05 -1.40664e-06 1.88698e-06 -0.000999907 0.00136936 0.00120619 0.004 736.945 -5.31155 
150 1 1 -0.0273271 -0.0370832 0.0158763 0 0 0 3.40735e-07 5.12653e-06 4.92951e-06 1.12582e-05 1.87829e-05 6.46548e-06 -0.000494055 -0.000190309 -0.000363174 0.004 330.478 3.85311 
38 1 1 -0.0197788 -0.0373719 0.0182824 0 0 0 -4.16279e-06 1.883e-06 1.60219e-05 2.65312e-05 1.98574e-05 -1.20459e-05 0.00200537 -0.00279503 -0.000197191 0.004 359.682 4.7827 
199 1 1 -0.0118545 -0.0370266 0.01765 0 0 0 -5.4212e-06 -2.08201e-06 2.33879e-05 3.638e-05 3.30261e-05 -7.96314e-06 0.000240171 0.00192172 -0.000618492 0.004 398.778 4.91671 
93 1 1 0.0137643 -0.0377759 0.0156808 0 0 0 2.89725e-06 -1.7146e-06 2.21016e-05 1.20162e-05 -7.57375e-06 2.61665e-06 0.000771662 0.00202072 -0.00306846 0.004 687.091 -4.78865 
64 1 1 0.0280176 -0.0365092 0.0179286 0 0 0 -5.9914e-07 6.91577e-07 9.27341e-06 1.90434e-05 2.29988e-06 8.69046e-06 0.00171239 0.00175066 -0.00023738 0.004 774.406 -3.73094 
22 1 1 -0.0327402 -0.032422 0.0194567 0 0 0 -1.0986e-06 9.92264e-06 9.76085e-06 -4.66742e-06 2.22962e-05 1.31876e-05 0.000690944 -0.00229446 0.00195621 0.004 316.407 2.7086 
174 1 1 -0.0224319 -0.0302105 0.0162617 0 0 0 1.77974e-07 8.971e-06 2.60306e-05 1.01619e-05 1.75639e-05 1.4435e-05 0.00162161 -5.53911e-05 -6.30623e-06 0.004 346.073 4.44491 
32 1 1 -0.00428315 -0.0343967 0.0166775 0 0 0 -6.11295e-06 -1.62762e-06 1.93984e-05 2.95866e-05 1.32777e-05 2.24207e-06 0.00127566 0.000333788 0.00165831 0.004 499.74 2.12202 
128 1 1 0.00347455 -0.0331319 0.0179959 0 0 0 1.44441e-06 -1.39898e-05 3.30566e-05 1.89296e-05 1.97328e-06 8.83602e-06 0.00514566 -0.00157701 -0.00508905 0.004 580.347 -1.19632 
88 1 1 0.0113687 -0.0304833 0.0177099 0 0 0 9.39545e-06 -8.85162e-06 4.2585e-05 9.06064e-06 -1.89415e-05 1.04645e-05 0.00294692 0.000583099 0.00234924 0.004 682.104 -4.52305 
137 1 1 0.0208046 -0.0338185 0.0156334 0 0 0 -2.94751e-06 -3.97676e-06 1.12502e-05 1.04768e-05 -7.41084e-06 -2.55674e-06 0.00360543 -0.000514644 -0.0012502 0.004 750.914 -5.06049 
154 1 1 0.033982 -0.0311387 0.0180551 0 0 0 -3.4496e-06 4.25924e-06 1.28883e-05 4.94219e-06 -2.42361e-07 6.85909e-06 0.000902078 0.0014967 -0.000262136 0.004 787.955 -2.11287 
52 1 1 -0.031991 -0.0252344 0.0161625 0 0 0 4.45853e-06 1.49577e-05 2.05355e-05 -6.25134e-06 3.4266e-05 1.96117e-05 -0.000313403 -0.00200781 -2.9363e-05 0.004 315.94 2.46998 
80 1 1 -0.00960102 -0.0265066 0.0175805 0 0 0 -6.01654e-07 1.05278e-05 4.65593e-05 6.37361e-06 2.12158e-05 2.08199e-06 -0.000882452 -0.00307819 -0.00128992 0.004 434.137 3.89826 
125 1 1 -0.00117368 -0.0267001 0.0173742 0 0 0 1.05229e-05 3.5431e-06 4.41354e-05 1.7023e-05 1.15941e-05 2.30239e-05 0.00179158 -0.00176132 0.00137373 0.004 532.961 0.911466 
72 1 1 0.0179272 -0.0264315 0.015637 0 0 0 1.14968e-05 -1.71904e-06 3.80653e-05 1.31676e-05 -1.54869e-05 -1.11223e-06 0.00236192 0.00107139 -0.00157143 0.004 731.461 -5.1568 
34 1 1 0.0269647 -0.0287251 0.0154182 0 0 0 -9.26092e-06 9.395e-06 2.48294e-05 1.25578e-05 -2.62205e-07 8.89001e-06 0.00153061 -0.000291035 0.00041653 0.004 775.336 -3.13989 
218 1 1 -0.0395968 -0.0234663 0.0176916 0 0 0 2.38657e-06 1.08442e-05 7.12987e-06 -4.81754e-06 3.37738e-05 5.60284e-06 -0.00110074 -0.0018131 0.00107378 0.004 305.932 1.3042 
70 1 1 -0.0247176 -0.0230258 0.0185785 0 0 0 -1.47468e-06 2.0903e-05 3.19826e-05 -4.16639e-06 2.32924e-05 1.721e-05 -0.00208744 -0.00110812 -0.000728709 0.004 334.371 3.50394 
132 1 1 -0.0171324 -0.0242634 0.0164744 0 0 0 7.65716e-07 1.62416e-05 3.63615e-05 3.90854e-06 1.38601e-05 1.76813e-05 0.000710284 -0.00138968 0.00108753 0.004 368.001 4.45448 
196 1 1 0.00716644 -0.023789 0.0170601 0 0 0 -1.73703e-06 -2.47882e-06 6.11638e-05 1.44253e-05 -6.39201e-06 1.38862e-05 -0.00120617 0.00383488 -0.0029303 0.004 649.523 -3.41793 
362 1 1 0.0243873 -0.0214291 0.0170617 0 0 0 -3.07951e-06 2.198e-05 4.5957e-05 1.57622e-05 -1.01807e-05 3.81719e-06 0.00120832 0.00608784 -0.00216204 0.004 774.777 -3.26123 
49 1 1 0.0387627 -0.0248027 0.0179815 0 0 0 -2.75018e-06 4.64265e-06 1.21167e-05 5.41546e-06 9.18246e-07 8.08784e-06 -0.000106755 -8.1043e-05 0.000199352 0.004 793.961 -1.37236 
173 1 1 -0.0431191 -0.0163148 0.0177078 0 0 0 -4.33488e-08 9.14045e-06 4.77606e-06 -8.07911e-06 1.87883e-05 -4.78472e-06 0.000420946 -0.000261183 0.00154006 0.004 304.434 1.01134 
50 1 1 -0.0295065 -0.016766 0.0182811 0 0 0 -4.10531e-06 2.93254e-05 1.8476e-05 -6.4138e-06 3.45187e-05 1.27936e-07 -0.00107224 -0.0019099 0.000819033 0.004 319.139 2.48357 
202 1 1 -0.0134619 -0.0172167 0.0161107 0 0 0 -7.13115e-07 2.41488e-05 6.54628e-05 2.63585e-05 -2.69804e-06 1.11735e-05 0.00264659 -0.00213794 -0.00346717 0.004 402.276 4.16439 
86 1 1 -0.00524874 -0.0199157 0.0183757 0 0 0 -6.55883e-06 1.18519e-05 7.06254e-05 2.23186e-05 1.63941e-05 3.43326e-05 0.00345843 0.00206242 0.000130245 0.004 493.042 2.31471 
129 1 1 0.0138596 -0.0196294 0.016286 0 0 0 5.79808e-06 -5.83617e-07 5.03144e-05 1.56058e-05 -2.58034e-05 2.40141e-05 0.00331155 -0.00197332 0.00173525 0.004 708.032 -4.59602 
82 1 1 0.0291401 -0.0151358 0.0159325 0 0 0 -2.36343e-06 2.23343e-05 3.95724e-05 1.20666e-05 -4.86232e-07 1.03689e-05 -0.000586082 -0.00222889 0.000596902 0.004 784.396 -2.49788 
1 1 1 0.0424682 -0.0178049 0.0178803 0 0 0 -4.9896e-06 6.40525e-06 9.40787e-06 9.11376e-06 -2.72076e-06 6.04747e-06 -0.00110585 -0.000187697 0.000430117 0.004 796.514 -0.913574 
168 1 1 -0.0224799 -0.0136304 0.0164169 0 0 0 -2.3738e-08 2.75912e-05 3.69777e-05 1.93047e-05 1.04996e-05 3.65457e-07 -0.00156911 -0.00441729 -0.000441282 0.004 343.926 3.82308 
121 1 1 -0.00514908 -0.0120184 0.0174568 0 0 0 -1.97516e-05 1.14911e-05 6.44989e-05 2.34021e-05 6.52792e-06 2.36278e-05 -0.00150439 -0.00205881 0.00174544 0.004 503.817 1.67603 
28 1 1 0.008143 -0.0139812 0.0183177 0 0 0 -2.455e-05 5.76854e-06 7.15208e-05 -6.54051e-06 -2.84918e-05 2.81161e-05 0.00574985 -0.00506665 0.000561773 0.004 662.034 -4.23286 
42 1 1 0.0200407 -0.0148103 0.017266 0 0 0 -7.16464e-06 2.21395e-05 6.39676e-05 5.93088e-06 -2.8824e-05 9.00225e-06 -0.000358972 0.000987948 0.00378068 0.004 752.471 -4.1409 
60 1 1 0.037628 -0.011647 0.016172 0 0 0 -5.04963e-06 1.29448e-05 3.66778e-05 3.37742e-06 3.60692e-09 1.07567e-05 -0.00177722 -0.000779981 0.000518717 0.004 795.51 -1.06959 
135 1 1 -0.0452123 -0.00865101 0.0176759 0 0 0 2.09481e-06 1.00033e-05 7.7004e-06 -1.40319e-05 1.70964e-06 7.74363e-06 -0.000623949 -0.000514569 -0.000483829 0.004 302.286 0.643178 
81 1 1 -0.037613 -0.00944829 0.0199382 0 0 0 2.96663e-07 2.75738e-05 -9.94115e-06 -2.44307e-05 2.93987e-05 2.07307e-05 -0.000541702 0.00789147 0.00190914 0.004 304.688 1.05815 
190 1 1 -0.0303493 -0.00906439 0.0166847 0 0 0 4.42159e-06 3.07049e-05 1.10273e-05 -9.50182e-06 3.51115e-05 2.06029e-05 -0.000188161 -0.0140075 -0.000332886 0.004 313.265 2.09963 