ITEM: TIMESTEP
36800
ITEM: NUMBER OF ATOMS
890
ITEM: BOX BOUNDS mm mm mm
-0.05 0.05
-0.05 0.05
0 0.15
ITEM: ATOMS id type type x y z ix iy iz vx vy vz fx fy fz omegax omegay omegaz radius f_Temp[0] f_heatFlux[0] 
59 1 1 -0.000715547 -0.0460982 0.00395598 0 0 0 6.92164e-07 -3.75604e-07 1.59007e-07 -1.45522e-06 4.4515e-10 -7.61793e-07 0.000115492 9.35921e-05 -2.61892e-05 0.004 537.443 0.436581 
170 1 1 -0.0173498 -0.0426414 0.00397301 0 0 0 1.02137e-06 -1.26423e-07 3.91007e-07 -1.51619e-06 -2.49317e-08 -3.29007e-07 -7.69893e-05 -1.41502e-05 -0.00012438 0.004 407.972 3.9013 
15 1 1 -0.00975015 -0.0449638 0.00393397 0 0 0 1.01509e-06 -1.37847e-07 4.76713e-08 -1.55109e-06 -5.07322e-07 1.87028e-07 1.32996e-05 0.000198157 7.19368e-05 0.004 443.887 3.363 
116 1 1 0.00648761 -0.0428197 0.00395869 0 0 0 8.95481e-07 -4.83038e-09 2.41929e-07 -1.3969e-06 -7.39625e-08 -8.96753e-07 6.87391e-05 0.00013062 -7.35002e-06 0.004 611.774 -1.75244 
158 1 1 0.0143627 -0.0437625 0.00389981 0 0 0 3.68243e-07 4.12125e-08 6.43429e-08 -4.07579e-07 -6.97618e-07 -6.82755e-07 1.37282e-05 3.82875e-05 -9.38024e-05 0.004 662.021 -2.97385 
98 1 1 0.0216779 -0.0406527 0.00394261 0 0 0 6.30539e-07 3.31274e-08 -3.86757e-07 -5.94766e-07 -2.38373e-07 -4.3137e-07 -5.67678e-05 0.000138463 -5.32046e-05 0.004 704.931 -3.55965 
169 1 1 -0.0244315 -0.0390659 0.00391427 0 0 0 6.91376e-07 -3.33434e-07 1.28933e-07 -1.31438e-06 3.55635e-08 -6.12902e-07 4.69243e-05 0.000126527 -2.17894e-06 0.004 368.427 3.78593 
89 1 1 -0.011812 -0.0369235 0.00395462 0 0 0 1.42864e-06 -1.84006e-07 5.57363e-07 -2.134e-06 -3.95994e-07 -5.06829e-07 1.7039e-05 2.80749e-05 0.000347487 0.004 435.265 3.00036 
152 1 1 -0.00418342 -0.0390223 0.00390524 0 0 0 2.11475e-06 -8.69351e-08 3.99922e-07 -2.90154e-06 -1.24598e-06 -1.26169e-06 -9.65617e-05 0.000142483 -0.000384679 0.004 501.611 1.39225 
23 1 1 0.0153483 -0.035882 0.00391129 0 0 0 1.16664e-06 2.6252e-07 -3.5773e-07 -1.40489e-06 -6.74181e-07 -7.47699e-07 -9.43266e-05 0.000140235 -8.32566e-05 0.004 673.744 -3.15025 
118 1 1 -0.0307533 -0.0342397 0.00392725 0 0 0 6.79699e-07 -2.02955e-07 2.9904e-07 -7.22184e-07 2.02515e-07 -4.95134e-07 1.623e-05 0.000121776 -8.44018e-05 0.004 339.431 3.34143 
30 1 1 -0.0188787 -0.0333717 0.00395275 0 0 0 9.32076e-07 -1.2434e-06 7.66656e-08 -2.03419e-06 9.44964e-07 -4.29422e-07 0.000147186 2.35235e-05 -0.00011339 0.004 382.508 3.58356 
215 1 1 -0.00603631 -0.0313238 0.00390662 0 0 0 2.51945e-06 -9.43408e-07 1.72997e-07 -3.49516e-06 -8.54814e-07 -7.83961e-07 0.000237984 0.000352106 0.000448545 0.004 478.462 1.9531 
74 1 1 0.00184141 -0.0338192 0.0039068 0 0 0 2.37596e-06 -5.06807e-07 3.04726e-07 -3.30785e-06 -1.13288e-06 -7.11147e-07 0.000163184 0.00039701 0.000202008 0.004 557.652 -0.158255 
24 1 1 0.00917857 -0.0308341 0.00392035 0 0 0 1.68025e-06 -4.07175e-08 3.04659e-07 -2.69416e-06 -9.02369e-07 -1.08985e-06 7.62044e-05 0.000205144 -3.06083e-05 0.004 634.478 -2.21061 
198 1 1 0.0259423 -0.0339524 0.00395551 0 0 0 7.75444e-07 4.0977e-07 -7.82974e-07 -1.7874e-06 2.308e-07 -1.1148e-06 -0.000134772 4.69359e-05 -3.43152e-05 0.004 737.806 -3.53094 
161 1 1 0.0335301 -0.0316074 0.00391358 0 0 0 5.13675e-07 3.03631e-07 -6.33455e-07 -7.14377e-07 -1.42101e-07 -3.80494e-07 -8.56397e-05 1.12964e-05 -6.62335e-05 0.004 761.49 -3.06432 
8 1 1 -0.0322699 -0.0264156 0.00398405 0 0 0 8.49485e-07 -3.65068e-07 1.88459e-07 -1.22903e-06 7.75759e-07 -3.98485e-07 -8.6415e-06 -5.02787e-05 -2.66084e-05 0.004 332.419 2.9365 
12 1 1 -0.0244143 -0.0276959 0.00386439 0 0 0 1.26645e-06 -8.06112e-07 3.31751e-07 -1.99824e-06 1.08824e-06 -5.82687e-07 3.7122e-05 0.000139481 -9.13033e-05 0.004 356.919 3.44161 
188 1 1 -0.0131742 -0.0277762 0.00396589 0 0 0 1.75442e-06 -2.25342e-06 1.79478e-07 -3.88174e-06 1.91389e-06 -1.23916e-07 0.000230183 7.21979e-05 -0.000152668 0.004 402.922 3.49826 
77 1 1 -0.000100226 -0.0260809 0.00389417 0 0 0 1.98838e-06 -3.26399e-07 8.97168e-07 -4.11657e-06 -1.73911e-06 -1.48328e-06 0.000152609 0.000340585 -0.000190264 0.004 541.803 0.242342 
113 1 1 0.0165643 -0.0280203 0.0038866 0 0 0 1.22368e-06 3.63825e-07 -3.86698e-07 -2.77397e-06 -1.54742e-07 -9.05292e-07 2.92754e-05 0.000190835 0.000100825 0.004 691.068 -3.16874 
183 1 1 0.0384541 -0.0253742 0.00393847 0 0 0 3.26828e-07 2.00756e-07 -5.56964e-07 -6.22003e-07 -1.24694e-07 -2.20955e-07 1.32106e-05 -3.16692e-05 -7.06802e-06 0.004 776.98 -2.40729 
162 1 1 -0.0396311 -0.023418 0.00390783 0 0 0 6.58554e-07 -1.3422e-07 1.1964e-07 -1.03014e-06 -4.1214e-08 -4.18541e-07 6.74196e-07 0.000117946 -1.58091e-05 0.004 317.887 2.12004 
53 1 1 -0.027206 -0.0202486 0.00395169 0 0 0 1.36313e-06 -9.92555e-07 1.79051e-07 -2.83246e-06 2.98127e-06 -1.6679e-07 0.000146321 0.000241243 1.2795e-06 0.004 341.784 3.12083 
148 1 1 -0.0187584 -0.0220642 0.00393818 0 0 0 2.38914e-06 -1.86819e-06 6.24918e-07 -4.40402e-06 2.72963e-06 -1.83918e-06 0.000327438 0.000385362 -0.000192729 0.004 379.543 3.69203 
195 1 1 -0.00727815 -0.02155 0.00394567 0 0 0 4.15252e-06 -7.23641e-07 1.80327e-07 -7.80281e-06 -3.18572e-07 -1.06386e-06 7.58372e-05 0.000894974 6.25424e-05 0.004 462.293 2.57002 
179 1 1 0.0073663 -0.0231031 0.00394275 0 0 0 1.84166e-06 -2.22674e-08 1.02856e-06 -4.24373e-06 -1.45572e-06 -3.0555e-06 6.46777e-06 0.000403298 3.95568e-05 0.004 633.54 -2.27264 
95 1 1 0.0148506 -0.02031 0.00393212 0 0 0 7.2787e-07 4.12639e-07 -3.29646e-07 -3.48169e-06 -9.94992e-07 -1.42322e-06 -0.000121525 0.00012674 0.000127365 0.004 686.978 -3.11926 
76 1 1 0.0230028 -0.0233057 0.00397474 0 0 0 5.75815e-07 9.13807e-07 -7.3338e-07 -2.77374e-06 -4.21607e-07 -1.04412e-06 -0.0001282 0.000162933 6.47981e-05 0.004 743.068 -3.39956 
100 1 1 0.0325586 -0.0200895 0.00388596 0 0 0 5.67573e-07 9.5384e-07 -8.52356e-07 -1.80731e-06 -5.06101e-07 -9.20687e-07 -0.000164251 0.000185772 -0.000127258 0.004 769.672 -2.68461 
65 1 1 -0.0430742 -0.0162802 0.00393146 0 0 0 3.65121e-07 -5.42606e-08 3.33504e-08 -6.85361e-07 -3.92322e-08 -2.28615e-07 5.56627e-06 -4.81747e-05 8.7729e-05 0.004 311.929 1.63853 
102 1 1 -0.0351583 -0.0155178 0.0039445 0 0 0 1.6057e-06 -1.56741e-06 -1.4248e-07 -4.09729e-06 3.99389e-06 -3.85895e-08 0.000333585 0.000323085 -0.000653429 0.004 320.848 2.17119 
213 1 1 -0.0132588 -0.0162738 0.00397366 0 0 0 1.95165e-06 -1.38174e-06 4.22039e-07 -3.35564e-06 2.75448e-06 -1.74723e-06 8.27656e-05 5.07011e-05 0.000425392 0.004 406.419 3.58488 
10 1 1 0.00114847 -0.0182524 0.00475005 0 0 0 2.59814e-06 -1.71179e-07 8.31974e-07 -5.3257e-06 -1.83919e-06 -3.20965e-06 -0.000137053 -0.000441032 5.93266e-06 0.004 566.531 -0.536608 
5 1 1 0.00879792 -0.0152553 0.00390317 0 0 0 1.21339e-06 2.77988e-07 2.35689e-07 -3.91965e-06 -1.74261e-06 -2.1068e-06 -0.000125902 0.000288326 -6.99358e-05 0.004 643.503 -2.42973 
96 1 1 0.0211693 -0.0155242 0.00395653 0 0 0 -5.14146e-07 8.6621e-07 -3.43784e-07 -2.15687e-06 -1.26333e-07 -1.44582e-06 -5.76236e-05 -0.00017938 0.000135751 0.004 736.704 -3.28167 
167 1 1 0.0421923 -0.0183683 0.00392112 0 0 0 2.73947e-07 2.86764e-07 -4.23769e-07 -2.65159e-07 7.82685e-08 -2.72618e-07 -4.98464e-05 5.66222e-05 3.74197e-05 0.004 788.019 -1.67368 
124 1 1 -0.0290109 -0.0104716 0.00394791 0 0 0 2.1489e-06 -1.8025e-06 -6.07031e-07 -5.8042e-06 5.46822e-06 1.90557e-06 0.000432406 0.000595815 0.000818385 0.004 337.241 2.77462 
220 1 1 -0.0217759 -0.0144544 0.00398045 0 0 0 1.12421e-06 -8.28884e-07 6.28537e-08 -3.02988e-06 3.42698e-06 1.7518e-07 0.00019853 0.000220133 5.64602e-05 0.004 362.014 3.26657 
144 1 1 -0.00535515 -0.0138038 0.00388183 0 0 0 2.4456e-06 -8.11525e-07 2.97459e-07 -4.56372e-06 -4.3576e-07 -2.79787e-06 0.000158601 0.000475332 0.000232641 0.004 502.733 1.13116 
26 1 1 0.00255574 -0.0104629 0.00390571 0 0 0 1.37212e-06 1.83894e-07 1.19589e-07 -4.0231e-06 -1.4335e-06 -2.99131e-06 -0.000116497 0.000135385 0.000157613 0.004 571.544 -0.713364 
194 1 1 0.0287353 -0.013103 0.00393082 0 0 0 -4.25351e-07 1.40998e-06 -5.20797e-07 -2.06434e-06 -7.57459e-08 -1.35286e-06 -0.000209727 1.31107e-05 0.000216443 0.004 764.019 -2.83842 
37 1 1 0.0366701 -0.0122308 0.00393306 0 0 0 -1.77193e-07 1.31769e-06 -1.02477e-06 -2.06658e-06 6.07395e-08 -3.70361e-07 -0.00019929 -1.00621e-05 -0.000148837 0.004 783.476 -1.96874 
219 1 1 0.0447285 -0.0108715 0.00390888 0 0 0 -1.37038e-07 2.25371e-07 -3.84091e-07 6.8465e-08 8.29441e-09 -2.62307e-07 1.04731e-05 -7.78961e-05 1.86295e-05 0.004 792.508 -1.2738 
636 1 1 -0.0451997 -0.00864275 0.00391771 0 0 0 -2.87905e-07 -1.13339e-07 -3.20991e-07 8.46379e-07 1.34016e-07 9.25038e-07 -5.90552e-06 -4.06681e-05 9.38018e-05 0.004 307.376 1.21729 
39 1 1 -0.0161466 -0.00885109 0.00388992 0 0 0 1.27634e-06 -1.02428e-06 8.05495e-08 -3.23338e-06 3.20272e-06 -1.62066e-06 8.74819e-05 0.0001179 -0.000142177 0.004 401.758 2.93277 
171 1 1 -0.00395983 -0.00597828 0.00392049 0 0 0 1.13207e-06 -5.96722e-07 4.21054e-07 -3.46735e-06 -8.7865e-08 -3.18992e-06 8.62187e-05 0.000203614 0.000183121 0.004 508.189 0.906605 
200 1 1 0.0146298 -0.0098652 0.0039638 0 0 0 -5.89069e-07 7.1382e-07 2.97974e-07 -2.67721e-06 -8.00184e-07 -1.51845e-06 4.71739e-05 -9.68398e-05 0.000403341 0.004 693.516 -3.29293 
21 1 1 0.022252 -0.00762162 0.00394338 0 0 0 -1.11048e-06 1.2772e-06 -5.7368e-08 -2.07262e-06 2.45905e-08 -1.77495e-06 -0.00018828 -0.000117684 -0.000133711 0.004 739.496 -3.31749 
17 1 1 0.0298456 -0.00520717 0.00394876 0 0 0 -1.4898e-06 1.12157e-06 5.10164e-07 -1.96178e-06 5.25884e-07 -5.32892e-07 -3.80527e-05 -0.000318696 7.73916e-05 0.004 763.972 -2.90706 
477 1 1 -0.0445832 -0.000710815 0.00396286 0 0 0 -1.06512e-06 -2.10894e-08 -3.49711e-07 2.0524e-06 1.02867e-08 2.2688e-06 2.93784e-05 -0.000190755 1.56949e-05 0.004 307.016 1.13937 
140 1 1 -0.0352672 -0.00371828 0.00387249 0 0 0 -8.03706e-07 -3.14277e-07 -1.2469e-06 7.49198e-07 1.57418e-06 3.99465e-06 -9.62076e-05 -0.000171225 0.000699606 0.004 322.448 2.04245 
119 1 1 -0.0273891 -0.00269835 0.00396392 0 0 0 5.09619e-08 -7.78486e-07 -2.13731e-07 -7.63525e-07 3.84079e-06 7.79367e-07 8.83435e-05 6.32929e-05 -0.000403179 0.004 344.75 2.71852 
207 1 1 -0.0194911 -0.00168729 0.00389515 0 0 0 8.20189e-07 -1.08898e-06 -5.74257e-07 -2.0234e-06 4.74702e-06 -1.16331e-06 -3.19677e-06 0.000119034 0.000179403 0.004 381.517 2.94175 
69 1 1 -0.0111572 -0.00264552 0.00393011 0 0 0 1.08163e-06 -7.02096e-07 4.74043e-08 -2.06922e-06 2.77001e-06 -1.67127e-06 -3.09694e-05 9.99691e-05 4.09402e-05 0.004 440.973 2.35261 
221 1 1 0.00874805 -0.00448988 0.00393204 0 0 0 -1.25596e-06 7.88655e-07 2.14969e-07 -3.27057e-06 -1.10297e-06 -1.86838e-06 3.33339e-05 -0.000306212 -0.000296581 0.004 653.851 -2.73034 
457 1 1 0.0163505 -0.0020806 0.00395931 0 0 0 -1.6609e-06 4.33569e-07 6.71076e-07 -2.70274e-06 1.74813e-07 -1.48278e-06 -0.00021472 -0.000289359 -6.65006e-05 0.004 705.629 -3.44636 
155 1 1 0.0378912 -0.00224685 0.00393693 0 0 0 -3.15027e-07 5.40297e-07 -1.80428e-07 -1.89367e-06 5.72142e-07 2.60508e-08 9.63388e-05 2.69172e-05 0.000721503 0.004 784.819 -1.77442 
665 1 1 0.0459183 -0.00307627 0.00394261 0 0 0 -4.0938e-07 2.73141e-07 -1.44758e-07 -4.49398e-07 2.80352e-07 -1.23098e-07 -4.39359e-05 -0.00010201 3.84958e-05 0.004 792.431 -1.24737 
120 1 1 0.00918487 -0.0371091 0.00876938 0 0 0 3.39555e-06 -4.5415e-07 4.27309e-07 -2.86173e-06 -1.35509e-06 -2.15851e-06 0.000277314 0.000555729 0.000165801 0.004 636.633 -2.37291 
9 1 1 -0.0247147 -0.033359 0.00937625 0 0 0 2.26239e-06 -9.6251e-07 5.09384e-07 -2.99345e-06 -1.59957e-08 -1.32331e-06 5.23633e-05 0.000345752 -0.000136424 0.004 359.367 3.59891 
101 1 1 -0.0188614 -0.0277191 0.00955151 0 0 0 3.02524e-06 -2.70781e-06 4.63287e-07 -3.88824e-06 1.88829e-06 -1.41661e-06 4.92743e-05 0.000274872 -0.000249583 0.004 377.87 3.56897 
48 1 1 0.0221998 -0.0293138 0.00920033 0 0 0 2.14552e-06 6.74949e-07 -1.49917e-06 -3.39794e-06 -8.63198e-07 -1.65546e-06 0.000103506 0.000141125 0.00012698 0.004 726.489 -3.3234 
75 1 1 0.02936 -0.0261745 0.00787424 0 0 0 1.0299e-06 1.28854e-06 -1.40631e-06 -2.73473e-06 -6.83495e-07 -1.80457e-06 -2.28902e-05 2.14874e-06 1.24441e-05 0.004 758.076 -3.03634 
46 1 1 -0.0327912 -0.0205809 0.00958353 0 0 0 1.95846e-06 -8.10199e-07 1.27493e-07 -3.41436e-06 1.58622e-06 -4.9963e-07 -0.000494137 -0.00013897 0.000250157 0.004 330.637 2.63942 
33 1 1 -0.013034 -0.0220249 0.00949572 0 0 0 5.07665e-06 -2.08461e-06 -4.44732e-07 -9.42416e-06 3.19909e-06 -3.98097e-07 -0.000241276 0.000418684 7.87888e-05 0.004 408.726 3.34302 
11 1 1 0.02689 -0.0187448 0.00924465 0 0 0 3.59031e-07 1.3938e-06 -1.24018e-06 -3.94346e-06 -4.61245e-07 -2.77199e-06 0.000152924 -0.000298333 0.000102218 0.004 753.617 -3.06375 
71 1 1 -0.0372751 -0.00954696 0.00876625 0 0 0 1.11754e-06 -3.97909e-07 -8.16082e-07 -1.50094e-06 4.01911e-07 1.32047e-06 -0.00053593 -0.000524131 0.00052322 0.004 316.063 1.81767 
62 1 1 -0.0228082 -0.00771374 0.00814041 0 0 0 1.03567e-06 -1.06732e-06 -5.70804e-07 -2.2388e-06 7.15188e-06 -1.03337e-06 -0.000242579 -0.000224164 0.000150781 0.004 362.486 3.07794 
19 1 1 -0.0097067 -0.00905634 0.00849075 0 0 0 3.27077e-06 -1.74607e-06 6.19354e-07 -6.08395e-06 1.76462e-06 -5.2211e-06 -0.000189166 2.01884e-06 4.6508e-05 0.004 467.862 1.75138 
187 1 1 0.00796711 -0.00988204 0.00975755 0 0 0 6.54322e-07 1.24883e-06 2.92885e-07 -1.16491e-05 -4.85098e-06 -1.76376e-06 -6.56208e-05 0.000257835 0.000729824 0.004 639.505 -2.83712 
157 1 1 0.0395817 -0.00751949 0.00963114 0 0 0 3.92289e-07 1.32073e-06 -1.4921e-06 -1.28422e-06 5.98307e-07 -1.03026e-06 -5.01916e-05 -0.00018618 -0.000320031 0.004 788.863 -1.55466 
18 1 1 0.00229113 -0.00404902 0.00852649 0 0 0 6.68282e-07 -1.72776e-07 1.27447e-06 -5.55748e-06 -9.10955e-07 -5.03572e-06 0.000425678 0.000746389 0.000555564 0.004 569.542 -0.614255 
185 1 1 -0.00531148 -0.045735 0.0104438 0 0 0 2.33087e-06 -6.32818e-09 -3.85258e-08 -1.65145e-06 -1.09965e-06 -5.54495e-07 -0.000194653 0.000114124 -0.000381839 0.004 494.153 1.74588 
83 1 1 0.00256736 -0.0459473 0.0112661 0 0 0 2.38887e-06 -4.31454e-07 2.03706e-06 -1.26614e-06 -1.03318e-06 -2.96526e-06 0.000383334 -0.000587349 -9.48313e-05 0.004 565.042 -0.413914 
58 1 1 -0.0218568 -0.0405821 0.0112769 0 0 0 2.21899e-06 -1.82413e-06 1.15097e-07 -3.19149e-06 9.19071e-07 -1.01193e-06 0.00014985 0.000117258 -0.000681872 0.004 373.425 3.77452 
105 1 1 -0.013586 -0.043966 0.0108788 0 0 0 3.71386e-06 -1.05577e-06 4.20298e-07 -2.34073e-06 -9.88753e-07 -7.15733e-07 0.000275922 0.000594195 -0.000722099 0.004 420.477 4.22647 
223 1 1 0.0103957 -0.0448674 0.0106706 0 0 0 2.20203e-06 -2.9092e-07 1.86452e-06 -1.03598e-06 -1.04193e-06 -2.16783e-06 0.000337503 0.000685121 -0.0001386 0.004 629.25 -2.20814 
217 1 1 0.0179432 -0.0424253 0.0108281 0 0 0 2.10407e-06 1.0901e-07 -1.27309e-06 -8.04156e-07 -8.049e-07 -1.21334e-06 -0.000379487 0.000322434 -0.000155875 0.004 680.334 -3.2778 
6 1 1 -0.0162615 -0.0350311 0.0113114 0 0 0 4.2909e-06 -2.97151e-06 -3.6222e-07 -5.36124e-06 2.02433e-07 -1.14015e-06 0.000287221 0.00056394 0.000330794 0.004 400.547 3.48612 
151 1 1 -0.00801307 -0.0382603 0.0108115 0 0 0 4.87997e-06 -1.26605e-06 2.65469e-07 -4.57514e-06 -2.46899e-06 -1.40406e-06 0.000454891 0.000597158 0.000274463 0.004 462.377 2.52871 
2 1 1 0.000443933 -0.038308 0.010271 0 0 0 5.11493e-06 -7.56915e-07 1.101e-06 -4.48528e-06 -3.13578e-06 -2.21893e-06 -0.000176753 0.00035746 -0.000191413 0.004 549.039 0.0629252 
117 1 1 0.0249196 -0.0387267 0.0109177 0 0 0 1.366e-06 1.1845e-07 -1.48871e-06 -3.80485e-07 -9.02007e-07 -9.79169e-07 -9.7479e-05 -0.000167741 -1.83871e-05 0.004 724.571 -3.56446 
13 1 1 -0.0323455 -0.0327547 0.011537 0 0 0 1.5719e-06 -4.15076e-07 7.18689e-07 -1.58794e-06 2.41224e-07 -1.12242e-06 5.50958e-05 -8.87998e-06 5.9511e-05 0.004 338.334 3.16225 
193 1 1 -0.00982578 -0.0305006 0.0107685 0 0 0 3.88526e-06 -1.9744e-06 -4.3093e-07 -5.74848e-06 -2.27844e-06 -1.8345e-06 -0.000270444 -0.000289699 -0.000152194 0.004 452.503 2.54888 
47 1 1 -0.00133755 -0.0305434 0.0103848 0 0 0 5.3662e-06 -1.78126e-06 2.0743e-06 -7.79575e-06 -2.32625e-06 -3.09227e-06 0.000137838 0.000447455 0.000368995 0.004 536.666 0.399767 
153 1 1 0.00656465 -0.0300231 0.0113662 0 0 0 5.14987e-06 3.66061e-07 1.15099e-06 -7.00638e-06 -3.13028e-06 -2.35583e-06 -0.000360263 0.000227421 -0.000169017 0.004 611.04 -1.68283 
41 1 1 0.0148076 -0.0317915 0.010654 0 0 0 3.78575e-06 4.86897e-07 -4.03549e-07 -4.57612e-06 -1.43215e-06 -2.30853e-06 7.50026e-05 0.000434316 -0.000117737 0.004 679.294 -3.1565 
163 1 1 0.0311565 -0.0339183 0.0111114 0 0 0 1.2998e-06 2.05484e-07 -1.23288e-06 -6.45167e-07 -8.31933e-07 -1.04236e-06 -2.84156e-05 1.76986e-05 -5.27886e-05 0.004 756.807 -3.12275 
214 1 1 -0.0375015 -0.0268265 0.010714 0 0 0 1.16242e-06 -3.05662e-07 5.44383e-07 -1.31433e-06 3.75248e-07 -1.23921e-06 -1.388e-05 -9.41772e-05 -0.000163578 0.004 325.113 2.49036 
210 1 1 0.0364694 -0.0280971 0.0111135 0 0 0 9.34429e-07 4.4246e-07 -1.4422e-06 -9.47454e-07 -2.50903e-07 -9.3766e-07 -0.000154959 -6.79365e-05 7.48902e-05 0.004 775.85 -2.41685 
108 1 1 -0.0260915 -0.0246404 0.0109305 0 0 0 2.91151e-06 -1.77952e-06 5.59667e-07 -3.54321e-06 2.13876e-06 -2.46554e-06 0.00034985 -3.54752e-05 -0.00048776 0.004 350.106 3.15442 
40 1 1 -0.00551109 -0.0238697 0.0113286 0 0 0 5.65228e-06 -2.25241e-06 8.88271e-07 -9.76176e-06 -1.10559e-06 -2.63391e-06 6.23504e-05 -0.000615253 -0.000181946 0.004 490.002 1.56656 
55 1 1 0.00236211 -0.0232851 0.0108249 0 0 0 5.49097e-06 -1.13742e-06 1.23333e-06 -8.25693e-06 -2.89844e-06 -3.6916e-06 0.000167478 0.000588903 0.000363932 0.004 576.987 -0.732978 
91 1 1 0.0120918 -0.0243837 0.0101856 0 0 0 4.01629e-06 7.05624e-07 2.7768e-07 -6.42287e-06 -2.63492e-06 -3.18161e-06 -6.81531e-05 0.000237178 0.000122594 0.004 662.188 -2.86028 
112 1 1 0.0192794 -0.0205361 0.0105073 0 0 0 1.97754e-06 1.29013e-06 -1.54331e-06 -5.15198e-06 -1.48821e-06 -2.81055e-06 8.00467e-05 0.000478119 -3.45468e-05 0.004 711.252 -3.42681 
178 1 1 0.0318658 -0.0225253 0.0144789 0 0 0 2.85221e-06 1.27439e-06 -3.31041e-06 -3.18662e-06 -5.63007e-07 -2.53387e-06 7.94245e-05 0.000515489 8.33971e-05 0.004 771.018 -2.61637 
131 1 1 0.0407765 -0.0214683 0.0110513 0 0 0 6.12104e-07 8.44389e-07 -1.0363e-06 -9.35975e-07 2.43285e-07 -6.94152e-07 1.81844e-05 -6.13834e-05 -0.000207513 0.004 784.82 -1.88745 
160 1 1 -0.0414721 -0.0199398 0.0108131 0 0 0 1.05097e-06 -2.45291e-08 1.50032e-07 -3.72961e-07 4.7505e-07 -1.94673e-07 -6.9983e-05 0.000105668 9.67822e-05 0.004 313.934 1.79644 
43 1 1 -0.0361086 -0.0151005 0.0142598 0 0 0 2.15749e-06 -2.69012e-08 -4.44959e-09 -1.31607e-06 -2.76186e-07 -6.35436e-07 0.000299545 0.000331136 -0.000318952 0.004 321.006 2.06424 
4 1 1 -0.0270342 -0.0151184 0.010074 0 0 0 4.52584e-06 -2.16879e-06 -1.08085e-06 -1.01668e-05 4.99715e-06 2.97416e-06 -0.000322948 -8.47167e-05 -0.000867687 0.004 345.086 3.01104 
104 1 1 -0.0203009 -0.0192302 0.0111977 0 0 0 4.5579e-06 -3.25314e-06 4.53788e-07 -8.03268e-06 5.68088e-06 -2.98096e-06 -0.000147015 0.00022801 0.000276273 0.004 373.421 3.31921 
20 1 1 -0.00745477 -0.0162218 0.0110955 0 0 0 5.74581e-06 -2.03437e-06 9.7076e-07 -9.82275e-06 1.18553e-06 -5.23891e-06 7.11168e-05 0.000300263 0.000158254 0.004 482.865 1.57131 
45 1 1 0.000825094 -0.0164513 0.0146047 0 0 0 6.17839e-06 -2.69921e-06 1.14578e-06 -9.36963e-06 -2.77745e-06 -7.89296e-06 -6.74478e-06 0.000153186 8.47436e-05 0.004 558.28 -0.275596 
159 1 1 0.00795162 -0.0177076 0.0113471 0 0 0 4.10816e-06 4.67324e-08 8.41374e-07 -7.48666e-06 -4.15696e-06 -4.74621e-06 0.000119447 0.000120032 0.000219993 0.004 636.58 -2.25906 
136 1 1 0.0347931 -0.0163371 0.0104656 0 0 0 1.5029e-07 1.8745e-06 -2.56039e-06 -2.82179e-06 7.55108e-08 -1.57046e-06 -6.1341e-05 -0.000219861 0.000311312 0.004 777.456 -2.28324 
177 1 1 -0.0443274 -0.0125289 0.0108104 0 0 0 3.74959e-07 -2.69903e-07 -6.42121e-07 -4.65784e-07 6.27509e-07 1.25381e-06 -0.000114325 0.000126573 -1.0029e-05 0.004 310.158 1.45011 
139 1 1 -0.0168209 -0.0121092 0.0110439 0 0 0 3.79987e-06 -2.61453e-06 -8.10283e-07 -6.86572e-06 3.48419e-06 -3.21109e-06 0.000347179 0.000749672 -0.00012038 0.004 393.95 3.01333 
211 1 1 -0.00209536 -0.0104148 0.0103075 0 0 0 4.44976e-06 -1.86544e-06 1.12238e-06 -7.06546e-06 -7.85911e-07 -6.10281e-06 0.000373025 0.000376632 0.000132819 0.004 528.789 0.420284 
54 1 1 0.0149155 -0.0138957 0.0108309 0 0 0 1.74734e-06 9.71918e-07 6.45696e-07 -6.33938e-06 -1.89216e-06 -3.9781e-06 4.65742e-05 0.000277865 0.000324146 0.004 692.941 -3.36212 
84 1 1 0.023272 -0.0118009 0.0106602 0 0 0 -8.07389e-07 1.51201e-06 -6.175e-07 -4.10518e-06 1.70625e-07 -3.44417e-06 2.76548e-05 0.000295146 8.87331e-05 0.004 743.347 -3.24178 
180 1 1 0.0438204 -0.0140997 0.0110465 0 0 0 3.66713e-07 3.64203e-07 -9.60952e-07 -3.64078e-07 1.41126e-07 -9.02023e-07 1.59904e-06 0.000101328 0.00016389 0.004 791.143 -1.39164 
103 1 1 0.0174441 -0.0063656 0.0105707 0 0 0 -9.67926e-07 7.36239e-07 1.27908e-06 -4.86854e-06 -3.87722e-07 -3.96305e-06 0.000160127 0.000469832 0.000256593 0.004 711.227 -3.36337 
156 1 1 0.0308891 -0.00946111 0.0106299 0 0 0 -1.77338e-06 1.47156e-06 -6.64425e-07 -3.95078e-06 5.27248e-07 -1.49527e-06 0.00054955 -7.74263e-05 0.000138386 0.004 766.637 -2.69854 
197 1 1 -0.045783 -0.0047112 0.0107571 0 0 0 -7.05126e-07 -1.6137e-07 -6.16112e-07 1.24647e-06 -5.65871e-07 2.62893e-06 3.53545e-05 5.9401e-05 7.47049e-05 0.004 307.445 1.19233 
87 1 1 -0.0386059 -0.00381153 0.0141381 0 0 0 -1.26618e-06 -2.09697e-06 -1.56876e-06 3.5826e-06 -2.56579e-06 8.19639e-06 0.000799984 0.000435014 4.21203e-05 0.004 312.484 1.54565 
130 1 1 -0.0313597 -0.00387383 0.0107775 0 0 0 -2.83267e-06 -2.62106e-06 -1.27466e-06 4.25901e-06 7.43336e-06 7.54251e-06 0.00105122 -0.000408305 -0.000962733 0.004 327.076 2.25147 
604 1 1 -0.0224595 -0.000300857 0.0110796 0 0 0 6.37089e-07 -2.4331e-06 -1.19914e-06 -4.33223e-06 5.07674e-06 2.42537e-08 0.000526965 -0.000283457 -0.000260908 0.004 369.372 2.83298 
146 1 1 -0.0155078 -0.00400725 0.0103913 0 0 0 1.7024e-06 -2.2538e-06 -7.92405e-07 -5.54416e-06 3.37034e-06 -3.79997e-06 0.000294688 -0.000227404 0.000339888 0.004 414.141 2.58007 
57 1 1 -0.0051752 -0.00310605 0.0111955 0 0 0 2.35386e-06 -2.407e-06 1.76801e-06 -6.75079e-06 9.63971e-07 -6.64674e-06 0.000272845 -9.29261e-05 7.81969e-05 0.004 507.639 0.939377 
493 1 1 0.0116957 -0.000875023 0.0103666 0 0 0 -1.7006e-06 -7.85954e-07 3.10603e-06 -5.891e-06 5.28304e-07 -3.77989e-06 -4.31785e-05 0.000351408 0.000126811 0.004 672.402 -2.90284 
31 1 1 0.0250484 -0.00405415 0.0104601 0 0 0 -1.83879e-06 1.54639e-06 7.66009e-07 -4.12246e-06 9.50191e-07 -2.29477e-06 8.78728e-05 -0.000157985 1.98899e-05 0.004 745.59 -3.0986 
588 1 1 0.0325999 -0.00174523 0.0105431 0 0 0 -2.2754e-06 1.6824e-06 1.0972e-06 -3.66544e-06 1.39643e-06 -5.68506e-08 -0.000174878 0.00012729 4.21946e-05 0.004 767.643 -2.548 
63 1 1 0.045924 -0.00327879 0.0119253 0 0 0 -3.98675e-07 4.31769e-07 -2.27399e-09 -1.0413e-06 6.2585e-08 -5.81633e-07 0.000207655 7.86357e-05 0.000152655 0.004 791.392 -1.31452 
107 1 1 -0.00850633 -0.045273 0.017677 0 0 0 5.91142e-06 -1.31572e-06 3.02069e-06 -2.71074e-06 -1.37765e-06 -1.07422e-06 0.00113961 0.000828293 -0.00115341 0.004 477.644 2.01481 
222 1 1 -0.00141959 -0.0418101 0.017113 0 0 0 8.00542e-06 -1.45951e-06 2.21923e-06 -3.60413e-06 -3.24176e-06 -1.60142e-06 -6.85609e-05 -4.11725e-05 0.000945191 0.004 540.59 0.315398 
142 1 1 0.00615865 -0.0401388 0.0154212 0 0 0 6.24423e-06 9.88324e-07 1.62223e-06 -3.47808e-06 -3.30484e-06 -3.24497e-06 -0.000827244 0.000134758 -0.000295755 0.004 600.604 -1.40604 
172 1 1 0.0116014 -0.0446445 0.0189547 0 0 0 4.8784e-06 9.87029e-08 4.88359e-07 -1.69275e-06 -1.85233e-06 -2.02753e-06 -6.02309e-05 0.00112606 -0.00102089 0.004 639.587 -2.49048 
109 1 1 0.0204197 -0.0412797 0.0183142 0 0 0 2.36502e-06 5.51674e-07 -6.84511e-07 -2.1957e-06 -1.23267e-06 -1.6425e-06 0.000274426 -0.000949058 -0.000344611 0.004 707.318 -3.8456 
150 1 1 -0.0273271 -0.0370832 0.0158763 0 0 0 2.47624e-06 -1.14964e-06 5.36578e-07 -2.40674e-06 -2.52224e-07 -1.51997e-06 0.000215997 -8.88218e-05 -0.000239565 0.004 354.702 3.49416 
38 1 1 -0.0197787 -0.0373719 0.0182824 0 0 0 5.30337e-06 -2.15543e-06 -2.66492e-07 -5.30362e-06 -1.04691e-06 -1.09653e-06 -0.000206591 0.00045691 5.56927e-05 0.004 386.611 3.55764 
199 1 1 -0.0118545 -0.0370266 0.01765 0 0 0 6.39569e-06 -4.15981e-06 2.2112e-07 -6.11562e-06 -3.32771e-06 -1.00609e-06 5.26382e-06 -0.000447636 -0.000390192 0.004 424.472 3.18278 
93 1 1 0.0137643 -0.0377759 0.0156808 0 0 0 5.86147e-06 2.51074e-07 -1.10757e-06 -3.04025e-06 -2.05324e-06 -2.79706e-06 0.000231991 0.000588181 -1.56476e-05 0.004 662.654 -2.95241 
64 1 1 0.0280177 -0.0365092 0.0179286 0 0 0 1.7394e-06 2.21162e-07 -2.13339e-06 -1.86086e-06 -1.16756e-06 -2.14484e-06 -8.77192e-06 -5.40744e-05 -0.000400602 0.004 750.108 -3.57929 
22 1 1 -0.0327402 -0.032422 0.0194567 0 0 0 1.38746e-06 -8.62993e-07 2.064e-07 -1.6653e-07 3.14744e-07 -1.73587e-06 5.16988e-05 -6.95546e-05 -0.000223309 0.004 335.259 2.94659 
174 1 1 -0.0224319 -0.0302105 0.0162617 0 0 0 4.73236e-06 -2.596e-06 2.85099e-07 -4.42186e-06 2.2313e-07 -2.16855e-06 0.000135968 7.62565e-05 -1.67277e-05 0.004 371.861 3.48903 
32 1 1 -0.00428308 -0.0343967 0.0166775 0 0 0 7.54773e-06 -3.5717e-06 1.28092e-06 -6.62715e-06 -4.45173e-06 -3.40213e-06 0.000331091 -0.000211019 -0.000280634 0.004 509.843 1.16086 
128 1 1 0.00347462 -0.033132 0.017996 0 0 0 8.55637e-06 -8.85349e-07 1.90891e-06 -6.73074e-06 -4.89937e-06 -4.26255e-06 0.000682428 0.000666335 0.000726125 0.004 574.312 -0.711552 
88 1 1 0.0113687 -0.0304834 0.01771 0 0 0 8.14075e-06 8.16131e-07 3.11678e-07 -6.27344e-06 -3.25162e-06 -3.17045e-06 -9.23022e-05 0.000451632 -0.000106159 0.004 659.038 -2.78353 
137 1 1 0.0208047 -0.0338186 0.0156334 0 0 0 5.26952e-06 1.31169e-06 -6.66333e-07 -5.00565e-06 -2.33203e-06 -3.63393e-06 -0.000304574 0.00101501 -0.000446757 0.004 722.074 -3.80586 
154 1 1 0.0339821 -0.0311387 0.0180551 0 0 0 2.10114e-06 2.05332e-07 -1.83e-06 -1.18732e-06 -6.50295e-07 -1.44634e-06 -2.68298e-05 -1.87838e-06 -0.000244236 0.004 772.398 -2.55021 
52 1 1 -0.031991 -0.0252343 0.0161626 0 0 0 2.58142e-06 -1.22327e-06 1.36558e-07 -1.63086e-06 1.33492e-06 -2.44398e-06 7.48336e-05 0.000239017 -0.00028018 0.004 333.047 2.68028 
80 1 1 -0.00960095 -0.0265066 0.0175805 0 0 0 7.01265e-06 -4.21301e-06 -6.94515e-07 -6.61237e-06 -4.03623e-06 -3.04824e-06 0.000674861 0.000836581 -0.000195548 0.004 453.646 2.32851 
125 1 1 -0.00117359 -0.0267001 0.0173742 0 0 0 7.10444e-06 -1.943e-06 2.86187e-06 -7.88161e-06 -2.31184e-06 -5.31181e-06 -0.000671097 0.000572331 -0.000204769 0.004 536.729 0.370236 
72 1 1 0.0179273 -0.0264316 0.015637 0 0 0 6.21811e-06 1.15879e-06 -1.4124e-06 -6.278e-06 -2.64905e-06 -4.19146e-06 -9.93365e-05 0.000529426 0.000318877 0.004 703.537 -3.53896 
34 1 1 0.0269648 -0.0287251 0.0154182 0 0 0 3.33799e-06 1.09929e-06 -2.62599e-06 -2.73266e-06 -1.8279e-06 -2.65497e-06 -0.000201464 0.000179789 -6.6299e-05 0.004 754.978 -3.03148 
218 1 1 -0.0395968 -0.0234663 0.0176916 0 0 0 1.41405e-06 2.0576e-07 5.28565e-07 -3.81725e-07 1.69716e-07 -6.74174e-07 8.22168e-05 -0.000106682 -5.07412e-05 0.004 316.771 1.94112 
70 1 1 -0.0247175 -0.0230258 0.0185786 0 0 0 4.58375e-06 -3.07531e-06 -3.01437e-07 -2.38542e-06 1.46177e-06 -3.23644e-06 -1.55471e-05 5.89489e-05 -0.000116678 0.004 355.653 3.01094 
132 1 1 -0.0171323 -0.0242634 0.0164744 0 0 0 5.88032e-06 -3.23268e-06 3.13655e-07 -4.31552e-06 2.81451e-07 -3.5502e-06 -0.000154821 -0.000150956 -0.000129174 0.004 392.541 3.18582 
196 1 1 0.00716654 -0.023789 0.0170602 0 0 0 8.24223e-06 2.39483e-08 8.54149e-07 -7.80538e-06 -3.5681e-06 -4.53198e-06 -5.43874e-05 -4.24783e-05 0.000201724 0.004 632.184 -2.08778 
362 1 1 0.0243874 -0.0214292 0.0170617 0 0 0 5.05307e-06 1.51398e-06 -2.24528e-06 -4.82609e-06 -1.04162e-06 -5.6485e-06 0.000208364 4.43669e-05 -0.000358286 0.004 753.953 -3.04864 
49 1 1 0.0387628 -0.0248027 0.0179815 0 0 0 1.70786e-06 1.62853e-07 -1.67862e-06 -1.32306e-06 -3.79011e-09 -1.22204e-06 0.000209904 0.000157584 6.92134e-05 0.004 782.487 -2.05545 
173 1 1 -0.0431191 -0.0163148 0.0177078 0 0 0 1.43965e-06 5.87041e-07 5.28611e-08 -1.21843e-08 6.7052e-07 8.07475e-07 -0.000249975 -0.000135375 4.95665e-05 0.004 313.181 1.61917 
50 1 1 -0.0295064 -0.0167659 0.0182812 0 0 0 3.95202e-06 -2.68087e-06 -1.19022e-06 -1.25774e-06 3.3559e-06 -2.72242e-09 -0.000379374 0.000117116 -0.000146196 0.004 335.515 2.48607 
202 1 1 -0.0134618 -0.0172167 0.0161107 0 0 0 5.92569e-06 -2.47826e-06 -1.85721e-07 -7.6378e-06 1.58938e-06 -6.12927e-06 -0.000410495 -0.000573712 0.000442245 0.004 423.804 2.64416 
86 1 1 -0.00524862 -0.0199157 0.0183758 0 0 0 7.44787e-06 -4.0127e-06 1.02283e-07 -8.9785e-06 -1.71676e-06 -7.05909e-06 -0.00036622 -0.000516524 0.000567148 0.004 503.743 1.1765 
129 1 1 0.0138597 -0.0196295 0.0162861 0 0 0 5.8965e-06 4.49535e-07 8.67819e-07 -6.50245e-06 -2.49745e-06 -4.8719e-06 0.000297318 0.000353794 4.07287e-05 0.004 683.713 -3.03595 
82 1 1 0.0291401 -0.0151359 0.0159325 0 0 0 3.02266e-06 1.179e-06 -2.23702e-06 -4.5769e-06 -2.71437e-07 -3.78148e-06 -6.0366e-05 0.0012273 0.000246555 0.004 767.187 -2.67665 
1 1 1 0.0424683 -0.0178049 0.0178803 0 0 0 2.24792e-06 2.76063e-07 -1.69038e-06 -1.25788e-06 7.2393e-07 -8.0712e-07 -6.1341e-05 0.000116063 -0.000142329 0.004 788.052 -1.62714 
168 1 1 -0.0224798 -0.0136304 0.016417 0 0 0 4.59696e-06 -3.71844e-06 -5.35645e-07 -5.62816e-06 4.04986e-06 -9.46779e-10 5.3641e-05 -0.00022543 -7.0718e-06 0.004 366.09 3.01087 
121 1 1 -0.00514893 -0.0120184 0.0174569 0 0 0 7.36672e-06 -3.79027e-06 1.52045e-06 -7.31197e-06 5.33581e-07 -7.62665e-06 0.00026549 -2.43228e-05 -0.000412402 0.004 511.689 0.871892 
28 1 1 0.00814314 -0.0139813 0.0183178 0 0 0 8.75749e-06 -4.18628e-06 2.76918e-06 -6.85394e-06 -3.48099e-06 -8.14693e-06 0.00108772 0.00110053 -2.84668e-05 0.004 641.433 -2.38949 
42 1 1 0.0200408 -0.0148104 0.0172661 0 0 0 5.35078e-06 1.0177e-06 2.23207e-07 -5.60338e-06 -4.20256e-07 -6.16555e-06 0.000206996 0.000860353 0.000313425 0.004 728.604 -3.20926 