ITEM: TIMESTEP
28000
ITEM: NUMBER OF ATOMS
890
ITEM: BOX BOUNDS mm mm mm
-0.05 0.05
-0.05 0.05
0 0.15
ITEM: ATOMS id type type x y z ix iy iz vx vy vz fx fy fz omegax omegay omegaz radius f_Temp[0] f_heatFlux[0] 
59 1 1 -0.000715555 -0.0460982 0.00395598 0 0 0 7.00108e-07 3.01004e-06 3.68642e-06 2.49382e-06 -6.16043e-08 -8.57558e-07 0.000572445 0.000392569 -0.000441883 0.004 527.596 2.36539 
170 1 1 -0.0173498 -0.0426414 0.00397302 0 0 0 1.2654e-06 2.87198e-06 3.11644e-06 4.81374e-07 -1.63642e-07 -1.47961e-06 0.000322122 -4.86711e-05 -1.41368e-05 0.004 354.83 6.67503 
15 1 1 -0.00975016 -0.0449637 0.00393398 0 0 0 9.70381e-07 3.79625e-06 2.25187e-06 1.73558e-06 -1.49887e-06 -3.12845e-06 -0.000883277 0.000103375 0.000266676 0.004 393.97 7.04876 
116 1 1 0.0064876 -0.0428197 0.0039587 0 0 0 -2.64824e-07 5.71723e-06 4.98394e-06 2.45924e-06 4.89253e-08 -9.97649e-07 -0.000405967 -0.000300817 0.000689263 0.004 638.466 -3.72126 
158 1 1 0.0143627 -0.0437625 0.00389981 0 0 0 -1.60941e-06 3.87044e-06 4.21299e-06 1.36813e-06 4.96173e-07 -3.49901e-07 -0.000105623 -0.000211031 -0.000406626 0.004 707.984 -6.81427 
98 1 1 0.0216779 -0.0406527 0.00394261 0 0 0 -1.66492e-07 1.75528e-06 2.26453e-06 4.61885e-07 3.01376e-07 1.85055e-08 2.197e-05 0.000507269 -0.00024164 0.004 753.706 -6.21213 
169 1 1 -0.0244315 -0.0390659 0.00391428 0 0 0 2.31468e-06 4.93982e-06 4.73118e-06 -8.23391e-07 -7.10988e-07 -2.77129e-06 -7.12227e-05 6.07511e-05 -2.34251e-05 0.004 324.27 4.50964 
89 1 1 -0.011812 -0.0369235 0.00395464 0 0 0 1.97876e-06 6.93548e-06 6.05006e-06 1.1099e-06 -6.20771e-07 -4.54567e-06 -0.00146544 -0.000171685 0.000184401 0.004 392.271 5.98124 
152 1 1 -0.00418343 -0.0390223 0.00390527 0 0 0 1.82968e-06 7.92676e-06 9.96144e-06 2.38071e-06 -1.0583e-07 -4.76166e-06 -0.000463838 0.000222202 2.26274e-05 0.004 478.724 3.81135 
23 1 1 0.0153483 -0.035882 0.00391129 0 0 0 -7.65073e-07 6.19876e-06 8.54207e-06 1.84694e-06 1.26945e-06 -8.19267e-07 -0.000215222 0.000400689 -0.000283844 0.004 721.754 -7.05891 
118 1 1 -0.0307533 -0.0342397 0.00392726 0 0 0 1.97088e-06 3.4715e-06 2.89651e-06 -4.1494e-07 -7.99259e-07 -2.22464e-06 -0.000418234 0.000330208 -9.52817e-05 0.004 307.946 2.26507 
30 1 1 -0.0188787 -0.0333717 0.00395277 0 0 0 4.34164e-06 9.24196e-06 8.82231e-06 -5.995e-07 -2.50769e-07 -4.65302e-06 -0.000416147 0.000969266 -0.000332854 0.004 338.049 5.04402 
215 1 1 -0.00603633 -0.0313237 0.00390664 0 0 0 1.60409e-06 1.16827e-05 1.07088e-05 2.52311e-06 -1.3411e-06 -6.48027e-06 -0.00151131 -9.17962e-05 -0.000351268 0.004 446.635 5.21757 
74 1 1 0.00184139 -0.0338192 0.00390682 0 0 0 7.10538e-07 1.02498e-05 1.07517e-05 4.25353e-06 4.60789e-07 -5.55494e-06 -0.00114433 7.57806e-05 -8.47543e-05 0.004 559.611 -0.297109 
24 1 1 0.00917855 -0.0308342 0.00392036 0 0 0 6.06097e-09 9.03678e-06 1.12005e-05 2.34159e-06 9.25064e-07 -2.95543e-06 -0.00111703 0.000367995 -0.00047326 0.004 669.874 -5.65158 
198 1 1 0.0259423 -0.0339524 0.00395551 0 0 0 -6.7069e-07 1.2151e-06 4.46917e-06 -2.30371e-07 8.11439e-07 -7.88762e-08 0.000668684 0.00024863 0.000472379 0.004 779.203 -4.23902 
161 1 1 0.0335301 -0.0316074 0.00391357 0 0 0 -5.08618e-07 2.30407e-06 2.5814e-06 -2.02403e-07 2.14634e-07 -1.27761e-07 -0.000126172 0.000284177 -0.000318038 0.004 791.558 -2.34926 
8 1 1 -0.0322699 -0.0264156 0.00398406 0 0 0 3.03867e-06 5.4303e-06 5.78432e-06 -3.01434e-07 -6.51383e-07 -2.44676e-06 0.000381159 -0.00122141 0.000354054 0.004 306.03 1.78573 
12 1 1 -0.0244143 -0.0276959 0.00386442 0 0 0 6.71019e-06 1.08645e-05 1.13382e-05 -6.70761e-07 -7.71302e-07 -6.20431e-06 -0.00153777 0.00119208 0.000332222 0.004 318.488 3.71443 
188 1 1 -0.0131742 -0.0277762 0.00396591 0 0 0 5.56181e-06 1.00182e-05 8.41595e-06 1.16664e-06 1.50618e-06 -5.35754e-06 -0.00078582 0.00141611 -0.000251633 0.004 355.475 6.0301 
77 1 1 -0.000100247 -0.0260809 0.00389418 0 0 0 7.10724e-06 1.32968e-05 1.22051e-05 2.57408e-06 1.65586e-07 -4.07974e-06 -0.00140453 0.000798326 -0.000652855 0.004 537.157 0.82993 
113 1 1 0.0165643 -0.0280203 0.00388659 0 0 0 4.10919e-08 5.25991e-06 7.78895e-06 6.15468e-07 1.63419e-06 -8.94771e-07 -0.000412219 0.00032585 -0.000251642 0.004 736.2 -6.24435 
183 1 1 0.0384541 -0.0253742 0.00393847 0 0 0 -6.69739e-07 1.86008e-06 2.26151e-06 -2.7374e-07 1.68108e-07 1.97517e-07 3.01352e-05 0.000307955 -0.00028999 0.004 796.79 -1.14383 
162 1 1 -0.0396311 -0.023418 0.00390784 0 0 0 2.08654e-06 2.4925e-06 2.74269e-06 -1.36298e-06 -7.42335e-07 -1.85975e-06 -0.00055434 0.000427049 0.00069536 0.004 301.974 0.769079 
53 1 1 -0.027206 -0.0202486 0.0039517 0 0 0 6.71636e-06 9.60977e-06 8.88698e-06 -5.39836e-07 -3.99782e-07 -4.13344e-06 -0.000723661 0.00212745 -0.000479176 0.004 310.399 2.57566 
148 1 1 -0.0187584 -0.0220642 0.0039382 0 0 0 8.6648e-06 1.50246e-05 1.13858e-05 -9.2389e-07 5.25059e-08 -6.26797e-06 -0.00215138 0.00140299 -0.00064822 0.004 332.402 5.36543 
195 1 1 -0.00727818 -0.02155 0.00394568 0 0 0 4.71345e-06 1.11614e-05 1.52055e-05 3.75657e-06 5.33623e-06 -4.76112e-06 -0.00176727 -0.000423863 0.00172687 0.004 417.427 7.41375 
179 1 1 0.0073663 -0.0231031 0.00394274 0 0 0 1.83334e-06 1.12636e-05 1.24143e-05 -3.58589e-07 7.31664e-07 -5.30099e-07 -0.000854545 -0.0004519 -0.000339272 0.004 671.496 -6.36657 
95 1 1 0.0148506 -0.02031 0.0039321 0 0 0 -2.54476e-07 6.65646e-06 1.30868e-05 -7.30401e-07 8.41208e-07 1.05348e-06 -0.000991068 -0.000444024 -0.000439706 0.004 732.124 -6.33249 
76 1 1 0.0230028 -0.0233057 0.00397473 0 0 0 -1.99852e-08 3.56406e-06 5.77441e-06 -6.79833e-08 1.08243e-06 -8.52236e-08 -4.85252e-06 -0.000405235 0.000287312 0.004 781.248 -3.73176 
100 1 1 0.0325586 -0.0200895 0.00388594 0 0 0 -2.72883e-06 4.30176e-06 6.56578e-06 1.46439e-07 1.63963e-06 8.74679e-07 -0.000520373 -1.97876e-05 0.000448363 0.004 794.147 -1.72058 
65 1 1 -0.0430742 -0.0162802 0.00393146 0 0 0 2.00862e-06 1.26897e-06 3.00646e-06 -6.26202e-07 -9.52763e-08 -1.52493e-06 -0.000133654 2.45012e-07 -0.000370655 0.004 300.945 0.422215 
102 1 1 -0.0351583 -0.0155178 0.00394452 0 0 0 4.36664e-06 1.01014e-05 9.85921e-06 -1.50814e-06 8.36838e-07 -3.95342e-06 -0.00274279 -0.000557703 0.00297755 0.004 303.03 1.04278 
213 1 1 -0.0132588 -0.0162738 0.00397366 0 0 0 1.05752e-05 8.9479e-06 9.21204e-06 -2.13751e-06 1.59346e-06 -3.64806e-06 -0.000231543 0.00206751 -0.00169034 0.004 354.23 6.94483 
10 1 1 0.00114847 -0.0182524 0.00475003 0 0 0 6.58573e-06 1.54875e-05 2.10494e-05 -1.29886e-06 8.50007e-07 -1.6791e-06 0.00160764 0.00135386 0.000426928 0.004 575.581 -1.6524 
5 1 1 0.00879791 -0.0152553 0.00390314 0 0 0 3.56821e-06 1.05801e-05 1.54249e-05 -4.8222e-07 7.4202e-07 4.63731e-07 -0.00188351 0.00167014 -0.000912716 0.004 681.554 -5.7985 
96 1 1 0.0211693 -0.0155242 0.0039565 0 0 0 -2.89824e-06 4.63164e-06 1.09473e-05 1.39519e-07 -3.93488e-07 7.58675e-07 6.9555e-05 -0.000702331 0.000653676 0.004 775.497 -4.13673 
167 1 1 0.0421923 -0.0183683 0.00392112 0 0 0 -1.08583e-06 9.53382e-07 9.26353e-07 -7.57283e-07 8.42637e-07 1.49152e-07 -0.000209531 -0.000290986 3.57466e-05 0.004 799.093 -0.414433 
124 1 1 -0.0290109 -0.0104716 0.00394792 0 0 0 6.81435e-06 9.81018e-06 1.08653e-05 -4.68817e-06 1.85419e-06 -1.9604e-06 -0.00140694 -4.82984e-05 -0.00244947 0.004 309.211 2.33248 
220 1 1 -0.0217759 -0.0144543 0.00398045 0 0 0 8.96354e-06 5.95897e-06 1.04454e-05 -1.1772e-06 8.67239e-07 -1.77531e-06 0.0014949 -0.000683037 -0.00148081 0.004 323.937 3.98237 
144 1 1 -0.00535516 -0.0138038 0.0038818 0 0 0 7.10914e-06 1.68056e-05 2.95445e-05 -8.69286e-07 1.98061e-06 -1.90606e-06 -0.00119028 0.00182841 -0.00193266 0.004 482.578 3.48713 
26 1 1 0.00255574 -0.0104629 0.00390567 0 0 0 7.18624e-06 1.62273e-05 2.32648e-05 -1.1629e-06 1.09512e-06 1.58455e-06 -0.00161857 0.0029108 -0.000523013 0.004 582.597 -1.67216 
194 1 1 0.0287353 -0.013103 0.00393078 0 0 0 -3.0904e-06 3.47927e-06 8.7327e-06 -2.45541e-06 1.50301e-06 2.18083e-06 -0.000205259 -0.000105574 -0.000633011 0.004 791.65 -2.16698 
37 1 1 0.0366701 -0.0122308 0.00393303 0 0 0 -5.2767e-06 4.40603e-06 6.3885e-06 -8.29992e-07 2.29881e-06 4.35224e-07 -0.00125769 -0.00102747 0.000843462 0.004 798.132 -0.711278 
219 1 1 0.0447285 -0.0108715 0.00390888 0 0 0 -4.17318e-07 8.86706e-07 9.73295e-08 -1.6551e-06 2.4027e-07 -1.10591e-07 -0.000356948 -0.000111068 -0.000269299 0.004 799.684 -0.176991 
636 1 1 -0.0451997 -0.00864275 0.00391771 0 0 0 4.72299e-06 2.04487e-06 3.91211e-06 -8.68669e-07 -2.69953e-08 -9.92763e-07 8.60217e-08 0.000728119 -0.000778559 0.004 300.353 0.188216 
39 1 1 -0.0161466 -0.00885108 0.00388991 0 0 0 1.15843e-05 9.59145e-06 2.20393e-05 -2.10236e-06 1.7559e-06 -2.13811e-06 -0.00119405 0.000771076 0.00191448 0.004 360.743 5.49599 
171 1 1 -0.00395983 -0.00597828 0.00392044 0 0 0 9.23827e-06 1.74701e-05 2.5803e-05 -1.63849e-06 1.01539e-06 1.45005e-06 -0.00247923 0.00164787 0.00070223 0.004 491.706 3.02893 
200 1 1 0.0146298 -0.00986519 0.00396376 0 0 0 1.12284e-07 6.43786e-06 1.25717e-05 -2.04737e-06 -1.39623e-06 5.32947e-07 -0.000315746 -0.000515289 0.000585819 0.004 740.244 -6.18006 
21 1 1 0.022252 -0.00762161 0.00394334 0 0 0 -2.66065e-06 4.38802e-06 1.27235e-05 -3.99144e-07 -1.02834e-06 1.69713e-06 -0.000682387 -0.00100104 -0.000742108 0.004 778.36 -3.98459 
17 1 1 0.0298456 -0.00520716 0.00394872 0 0 0 -1.3503e-06 2.2203e-06 8.22444e-06 -3.50579e-06 5.60627e-07 3.99115e-06 -0.000367753 4.00332e-05 0.000197036 0.004 792.325 -2.15265 
477 1 1 -0.0445832 -0.000710814 0.00396286 0 0 0 9.53451e-06 2.99364e-06 6.08159e-06 -1.51173e-06 -1.30372e-07 -8.5037e-07 -0.000282616 0.00190715 0.000577769 0.004 300.405 0.193886 
140 1 1 -0.0352672 -0.00371827 0.0038725 0 0 0 1.05618e-05 6.09628e-06 1.45035e-05 -1.9527e-06 2.34599e-06 -1.82072e-06 -0.000195639 0.00155706 -0.00238029 0.004 304.402 1.26132 
119 1 1 -0.0273891 -0.00269834 0.00396392 0 0 0 1.02471e-05 6.15368e-06 1.32173e-05 -2.24917e-06 2.79541e-06 -2.09195e-06 -0.000399932 -0.000313049 0.00195277 0.004 314.724 2.94148 
207 1 1 -0.0194911 -0.00168728 0.00389512 0 0 0 9.63521e-06 9.2276e-06 2.48177e-05 -1.48817e-06 6.26359e-07 -4.03389e-07 -0.000423857 0.0012556 -0.00125451 0.004 341.876 5.10196 
69 1 1 -0.0111572 -0.00264551 0.00393007 0 0 0 7.78285e-06 1.12087e-05 2.04667e-05 -1.33788e-06 -1.21214e-07 7.76249e-07 -0.000991947 0.00127886 -0.000438426 0.004 402.803 6.1774 
221 1 1 0.00874806 -0.00448987 0.00393199 0 0 0 2.4805e-06 1.20041e-05 1.61018e-05 -3.26897e-06 -8.81112e-07 2.36577e-06 -0.000817417 0.000940511 -0.00211209 0.004 696.717 -6.34461 
457 1 1 0.0163506 -0.00208059 0.00395926 0 0 0 -2.77755e-07 4.8858e-06 1.18138e-05 -3.88428e-06 -1.95027e-06 2.24401e-06 -0.00140835 -0.000602471 -3.24368e-05 0.004 753.923 -6.184 
155 1 1 0.0378912 -0.00224685 0.00393691 0 0 0 -4.46765e-06 3.84607e-06 5.66268e-06 -1.66238e-06 1.82857e-06 9.27402e-07 -0.0010473 -0.00112068 -0.000914904 0.004 798.159 -0.678377 
665 1 1 0.0459183 -0.00307627 0.0039426 0 0 0 -1.13034e-06 -9.57386e-08 6.41092e-07 -2.00035e-06 8.71554e-07 -1.30664e-07 0.000410828 -0.000299945 0.000370169 0.004 799.626 -0.196381 
120 1 1 0.00918485 -0.0371091 0.00876939 0 0 0 3.46721e-08 1.19561e-05 1.50958e-05 3.87597e-06 1.94748e-06 -3.28454e-06 0.000379468 0.000558511 -0.000198259 0.004 674.964 -6.04657 
9 1 1 -0.0247147 -0.033359 0.00937629 0 0 0 7.55393e-06 1.1843e-05 1.19821e-05 -3.462e-06 -1.63613e-06 -7.14469e-06 0.000309332 -0.000252979 -0.000312705 0.004 318.791 3.93942 
101 1 1 -0.0188614 -0.0277191 0.00955156 0 0 0 1.27807e-05 2.0592e-05 1.71231e-05 -1.19083e-06 6.62945e-07 -1.08562e-05 -0.000820258 0.000519257 -0.00180335 0.004 332.98 5.15579 
48 1 1 0.0221998 -0.0293138 0.00920033 0 0 0 -7.15693e-07 6.94081e-06 9.37284e-06 -2.68986e-07 2.19101e-06 -1.05639e-06 -0.00187432 -9.05399e-05 -0.00105636 0.004 767.699 -4.76033 
75 1 1 0.02936 -0.0261745 0.00787422 0 0 0 -5.56712e-07 3.95559e-06 7.63605e-06 -4.09982e-07 1.64481e-06 -5.09319e-07 0.00069375 -0.000238258 0.000272054 0.004 788.882 -2.6115 
46 1 1 -0.0327912 -0.0205809 0.00958357 0 0 0 1.46022e-05 1.38703e-05 2.05119e-05 -2.85245e-06 -3.06804e-06 -9.38791e-06 0.00253569 0.00097844 -0.00200216 0.004 306.218 1.76985 
33 1 1 -0.013034 -0.0220249 0.00949576 0 0 0 1.13331e-05 1.72035e-05 1.7765e-05 1.14299e-06 4.35915e-06 -1.03099e-05 -0.000699378 -0.000861367 -0.00039402 0.004 362.418 5.92884 
11 1 1 0.02689 -0.0187447 0.00924461 0 0 0 -3.10274e-06 5.3261e-06 1.41349e-05 -1.44821e-06 1.58418e-06 1.95135e-06 0.000607736 0.000500562 0.000593594 0.004 786.284 -2.99113 
71 1 1 -0.0372751 -0.00954695 0.00876627 0 0 0 5.87685e-06 7.13073e-06 1.2499e-05 -2.00071e-06 4.83219e-07 -3.69451e-06 0.0025992 0.00160432 -0.00193869 0.004 302.05 0.745731 
62 1 1 -0.0228082 -0.00771372 0.0081404 0 0 0 1.36922e-05 1.01047e-05 2.56691e-05 -3.8361e-06 1.78e-06 -2.04458e-06 0.00168631 -0.00152719 -0.000221565 0.004 325.2 4.11299 
19 1 1 -0.00970671 -0.00905633 0.0084907 0 0 0 1.8291e-05 2.82348e-05 4.47225e-05 -3.2904e-06 4.27465e-07 -1.66984e-06 -0.00177305 0.000521397 0.000152131 0.004 439.671 4.49481 
187 1 1 0.00796709 -0.00988204 0.00975751 0 0 0 1.90983e-05 2.42455e-05 1.86814e-05 -3.3107e-09 1.52667e-06 2.34415e-07 -0.00220952 0.00354619 0.000100731 0.004 689.314 -8.15676 
157 1 1 0.0395817 -0.00751948 0.0096311 0 0 0 -7.81e-06 2.96636e-06 9.05202e-06 -5.17473e-06 1.66498e-06 -5.12789e-07 0.00133022 0.00101444 0.000266475 0.004 799.144 -0.386733 
18 1 1 0.00229114 -0.00404901 0.00852638 0 0 0 1.36138e-05 2.44548e-05 4.14999e-05 -4.54632e-06 -3.16737e-07 6.86085e-06 0.00108289 0.00346348 0.000757594 0.004 579.158 -1.43551 
185 1 1 -0.00531148 -0.045735 0.0104439 0 0 0 1.87629e-06 6.13249e-06 5.2592e-06 5.13643e-07 -1.39141e-06 -4.91103e-06 0.000581233 0.000227206 -0.000515352 0.004 467.17 4.11156 
83 1 1 0.00256735 -0.0459473 0.0112661 0 0 0 6.77761e-07 6.91756e-06 1.06819e-05 1.49264e-06 2.02148e-06 -1.39544e-06 0.00249045 -0.00135393 0.000364976 0.004 576.366 -2.89758 
58 1 1 -0.0218568 -0.0405821 0.0112769 0 0 0 4.8611e-06 7.36586e-06 6.18104e-06 -2.40384e-06 3.43128e-07 -5.61804e-06 0.000297283 1.02114e-05 -0.000165852 0.004 327.408 5.01024 
105 1 1 -0.013586 -0.043966 0.0108788 0 0 0 7.30412e-07 4.04117e-06 5.02375e-06 2.04899e-06 1.84048e-06 -5.0573e-06 0.000913648 -0.000689568 0.000922972 0.004 359.827 7.8218 
223 1 1 0.0103956 -0.0448674 0.0106707 0 0 0 -4.63292e-07 6.38847e-06 1.06929e-05 2.45763e-06 1.45722e-06 -1.8457e-06 0.00119942 0.00159194 -0.000635264 0.004 666.94 -6.40369 
217 1 1 0.0179432 -0.0424253 0.0108281 0 0 0 -1.39347e-06 5.91624e-06 4.64981e-06 2.22457e-06 8.07089e-07 4.04369e-07 -0.0002747 0.00087062 -4.91019e-05 0.004 728.846 -6.89335 
6 1 1 -0.0162615 -0.0350311 0.0113115 0 0 0 5.07159e-06 1.63765e-05 1.84513e-05 1.51082e-07 -1.45622e-06 -1.50882e-05 0.00101021 -0.00289796 0.00172508 0.004 353.051 6.16013 
151 1 1 -0.00801309 -0.0382602 0.0108115 0 0 0 1.96316e-06 1.44232e-05 1.46143e-05 4.01883e-06 -2.07415e-06 -1.27811e-05 0.000110664 -0.000383677 8.90026e-05 0.004 422.715 6.13256 
2 1 1 0.000443905 -0.038308 0.010271 0 0 0 2.25965e-06 1.63407e-05 1.6814e-05 5.41966e-06 3.14927e-06 -7.2236e-06 -0.00103283 -0.000310813 0.000245387 0.004 547.914 0.173241 
117 1 1 0.0249196 -0.0387267 0.0109177 0 0 0 -2.24244e-06 5.12766e-06 2.43633e-06 5.56191e-07 5.95172e-08 4.89267e-07 -0.000203149 -0.000707368 0.000215548 0.004 769.1 -5.05687 
13 1 1 -0.0323455 -0.0327547 0.0115371 0 0 0 4.9065e-06 7.70286e-06 6.29782e-06 -3.01038e-06 -2.492e-06 -5.66688e-06 -3.89034e-05 -1.2264e-05 -2.42325e-06 0.004 307.982 2.27564 
193 1 1 -0.00982578 -0.0305005 0.0107686 0 0 0 8.04144e-06 2.2306e-05 2.78587e-05 -1.20307e-06 -1.40311e-06 -2.03634e-05 0.00153283 0.00237635 -0.00156054 0.004 412.023 6.41369 
47 1 1 -0.00133758 -0.0305433 0.0103849 0 0 0 8.43308e-06 2.20634e-05 2.28327e-05 3.20791e-06 -2.43078e-07 -1.40187e-05 0.000394731 0.00140817 -0.00166508 0.004 528.588 1.59648 
153 1 1 0.00656461 -0.0300231 0.0113662 0 0 0 5.30529e-06 2.09311e-05 2.73437e-05 4.72725e-06 2.15239e-06 -6.67422e-06 -0.000402012 0.000815417 -0.000669923 0.004 638.626 -4.47987 
41 1 1 0.0148076 -0.0317915 0.010654 0 0 0 1.1747e-06 1.54413e-05 1.94677e-05 3.03346e-06 3.17113e-06 -8.22955e-07 -0.000547699 0.000635217 -0.000617901 0.004 726.669 -6.87634 
163 1 1 0.0311565 -0.0339183 0.0111114 0 0 0 -2.00574e-06 4.96692e-06 4.72317e-06 -5.27426e-07 1.25934e-07 -5.32985e-08 -2.94893e-07 0.000155171 -0.000677434 0.004 788.69 -2.71283 
214 1 1 -0.0375015 -0.0268265 0.010714 0 0 0 5.71117e-06 7.42636e-06 7.54787e-06 -2.30947e-06 -2.48282e-06 -6.5726e-06 0.00056374 -0.00117388 0.000823223 0.004 303.938 1.30961 
210 1 1 0.0364694 -0.0280971 0.0111135 0 0 0 -1.72661e-06 2.60879e-06 4.3211e-06 -6.58926e-07 9.43295e-07 -6.62822e-08 0.00027296 0.000300727 7.56846e-05 0.004 796.144 -1.24805 
108 1 1 -0.0260915 -0.0246403 0.0109305 0 0 0 1.53513e-05 2.37984e-05 1.81376e-05 -2.61537e-06 -3.35552e-06 -1.30175e-05 -0.0017715 0.00059095 0.0027337 0.004 315.608 3.27376 
40 1 1 -0.00551111 -0.0238696 0.0113286 0 0 0 1.09443e-05 2.48914e-05 2.89443e-05 -3.50442e-07 7.77637e-07 -1.43877e-05 -0.000475395 0.00124452 0.00110891 0.004 463.761 4.33079 
55 1 1 0.00236209 -0.0232851 0.0108249 0 0 0 5.69653e-06 2.6989e-05 3.20796e-05 1.32132e-06 1.35965e-06 -4.51531e-06 -0.000283662 -0.0035904 0.00026896 0.004 588.572 -1.87182 
91 1 1 0.0120918 -0.0243837 0.0101856 0 0 0 4.06638e-06 1.93917e-05 2.54733e-05 1.11536e-06 1.76275e-06 -5.97251e-08 0.000393543 0.00137712 3.6463e-05 0.004 707.3 -6.96819 
112 1 1 0.0192794 -0.0205361 0.0105072 0 0 0 6.85561e-07 1.35569e-05 3.00549e-05 -3.61417e-07 2.12559e-06 4.33047e-06 -0.00274715 0.00278091 -0.00192487 0.004 757.753 -5.86633 
178 1 1 0.0318658 -0.0225253 0.0144788 0 0 0 -5.98262e-06 3.93225e-06 1.24087e-05 -1.25244e-06 4.56537e-07 -1.21357e-06 -0.000306793 -0.000331216 -0.000340584 0.004 794.508 -1.62144 
131 1 1 0.0407765 -0.0214683 0.0110513 0 0 0 -2.4947e-06 2.15628e-06 2.84189e-06 -5.77445e-07 2.25086e-06 1.64715e-06 -4.90399e-05 0.000402295 -0.000111021 0.004 798.454 -0.62372 
160 1 1 -0.041472 -0.0199398 0.0108131 0 0 0 4.35268e-06 3.9946e-06 5.10606e-06 -2.26042e-06 -9.30329e-07 -3.44656e-06 -0.000231689 0.000613152 -6.70118e-05 0.004 301.28 0.54181 
43 1 1 -0.0361086 -0.0151005 0.0142598 0 0 0 1.28934e-05 1.48114e-05 1.97094e-05 -4.63996e-06 -3.99345e-06 -1.1279e-05 -0.00453321 -0.00171142 0.00436349 0.004 303.611 1.11017 
4 1 1 -0.0270342 -0.0151184 0.0100741 0 0 0 1.69187e-05 2.32842e-05 2.67159e-05 -4.57965e-06 -1.06502e-06 -8.04077e-06 -0.00162025 0.000204352 0.00438339 0.004 313.043 2.90336 
104 1 1 -0.0203009 -0.0192301 0.0111977 0 0 0 2.08634e-05 3.01523e-05 2.93538e-05 -3.61167e-06 1.34365e-07 -1.20619e-05 0.00290077 -0.000414958 -0.00307886 0.004 331.791 4.7714 
20 1 1 -0.00745479 -0.0162217 0.0110955 0 0 0 1.8893e-05 3.06631e-05 5.08906e-05 -1.02487e-07 6.28353e-07 -4.95217e-06 0.00148558 0.00382744 -0.00287446 0.004 456.197 4.43401 
45 1 1 0.000825088 -0.0164513 0.0146047 0 0 0 1.75475e-05 3.24124e-05 5.7072e-05 -3.83297e-06 2.52289e-06 -2.83548e-06 0.00317667 0.0041056 -0.00204582 0.004 561.824 -0.57715 
159 1 1 0.00795161 -0.0177076 0.011347 0 0 0 9.11608e-06 2.68781e-05 4.11017e-05 -7.82181e-07 2.24184e-06 1.42107e-06 -0.000626236 0.000677566 -0.0017825 0.004 672.578 -5.60671 
136 1 1 0.0347931 -0.0163371 0.0104655 0 0 0 -5.37994e-06 4.421e-06 1.19614e-05 -2.01431e-06 1.7453e-06 2.52928e-06 0.00110514 0.000846687 0.000154245 0.004 796.55 -1.16016 
177 1 1 -0.0443274 -0.0125289 0.0108104 0 0 0 3.62806e-06 3.59343e-06 6.08429e-06 -1.66808e-06 -3.07289e-07 -2.67874e-06 0.000338711 -0.000629501 0.000557299 0.004 300.752 0.342917 
139 1 1 -0.0168209 -0.0121092 0.0110439 0 0 0 2.42919e-05 3.16829e-05 4.49874e-05 -3.37856e-06 9.31705e-07 -7.32225e-06 -0.00412517 -0.00146493 0.00370797 0.004 352.541 5.42584 
211 1 1 -0.00209537 -0.0104148 0.0103074 0 0 0 2.04425e-05 2.72968e-05 5.13087e-05 -3.04486e-06 1.58735e-06 3.91183e-07 -0.00152537 -9.30982e-05 0.000406635 0.004 520.947 1.3657 
54 1 1 0.0149155 -0.0138957 0.0108308 0 0 0 5.6008e-06 1.66607e-05 3.05321e-05 -2.30871e-06 -6.55782e-07 2.33909e-06 -0.00209705 0.0013347 0.000694982 0.004 741.466 -6.51792 
84 1 1 0.023272 -0.0118009 0.0106601 0 0 0 -5.63498e-06 6.78658e-06 2.6565e-05 -6.34912e-06 -3.69632e-07 4.85935e-06 -0.000262716 0.00129712 -0.000418188 0.004 780.995 -3.83301 
180 1 1 0.0438204 -0.0140997 0.0110465 0 0 0 -2.69889e-06 1.3319e-06 1.22297e-06 -1.84307e-06 1.32974e-06 2.03877e-06 0.000457054 -0.000293129 0.000257456 0.004 799.513 -0.248447 
103 1 1 0.0174441 -0.00636557 0.0105706 0 0 0 -1.13581e-06 1.04649e-05 3.05794e-05 -7.2304e-06 -3.1184e-06 3.52517e-06 0.000179351 0.000837783 -0.000364517 0.004 757.548 -5.89776 
156 1 1 0.0308891 -0.0094611 0.0106299 0 0 0 -3.80182e-06 4.50989e-06 1.76109e-05 -3.90131e-06 2.82286e-07 6.88783e-06 -0.000627234 0.00024 -0.000492572 0.004 792.745 -2.01403 
197 1 1 -0.045783 -0.0047112 0.0107571 0 0 0 9.92414e-06 2.97917e-06 9.77151e-06 -1.62661e-06 -1.42837e-07 -1.82671e-06 0.000416077 -0.00113731 -0.00134549 0.004 300.408 0.206007 
87 1 1 -0.0386059 -0.0038115 0.0141381 0 0 0 1.92626e-05 1.04294e-05 2.49223e-05 -1.49802e-06 -4.96023e-07 -3.04771e-06 -0.00128605 0.00219678 0.00232088 0.004 301.335 0.523963 
130 1 1 -0.0313597 -0.00387381 0.0107775 0 0 0 1.62536e-05 2.1026e-05 2.68803e-05 3.24627e-06 -9.44757e-07 -6.42397e-06 -0.00562121 -0.00102143 0.000784785 0.004 305.896 1.61006 
604 1 1 -0.0224595 -0.000300828 0.0110795 0 0 0 2.46162e-05 2.41325e-05 4.91386e-05 -4.0618e-06 -1.78658e-06 3.32007e-07 -0.00277236 0.00198579 0.000742391 0.004 333.205 4.37961 
146 1 1 -0.0155078 -0.00400724 0.0103913 0 0 0 2.28384e-05 2.97442e-05 4.85519e-05 -4.56768e-06 -1.43313e-06 -2.75132e-07 -0.00440074 0.00247266 0.00083856 0.004 376.046 5.54333 
57 1 1 -0.0051752 -0.00310601 0.0111953 0 0 0 1.90975e-05 2.40921e-05 6.02755e-05 -6.54935e-06 -5.33648e-06 8.3594e-06 0.00416747 -0.00041851 -0.00111475 0.004 490.709 3.07336 
493 1 1 0.0116957 -0.000874978 0.0103665 0 0 0 4.14442e-06 1.22783e-05 3.69525e-05 -9.26072e-06 -5.21776e-06 9.61173e-06 -0.00161632 0.000125863 -0.000997048 0.004 718.015 -6.90458 
31 1 1 0.0250484 -0.00405412 0.01046 0 0 0 -3.26174e-06 6.34585e-06 2.36674e-05 -8.15743e-06 -1.23307e-06 6.32797e-06 -0.000704863 0.00131611 -0.000379608 0.004 781.615 -3.68569 
588 1 1 0.0325999 -0.00174522 0.010543 0 0 0 -2.50848e-06 3.90221e-06 1.26259e-05 -6.52074e-06 2.85469e-06 6.44643e-06 0.000117013 0.0001869 0.000231682 0.004 792.595 -1.9889 
63 1 1 0.045924 -0.00327879 0.0119252 0 0 0 -2.89874e-06 2.98733e-07 2.29043e-06 -2.62832e-06 1.11746e-06 7.45397e-07 -0.000530007 0.000536032 -0.000488232 0.004 799.44 -0.263001 
107 1 1 -0.00850634 -0.045273 0.0176771 0 0 0 2.1754e-06 6.5092e-06 5.55551e-06 2.70393e-06 -2.8833e-06 -8.48487e-06 0.000354677 -0.00096766 6.52096e-05 0.004 445.711 5.16807 
222 1 1 -0.00141962 -0.04181 0.017113 0 0 0 2.71859e-06 1.58041e-05 1.7507e-05 6.6256e-06 1.82375e-07 -1.24742e-05 0.00151838 -0.000862825 0.00112865 0.004 534.958 1.10988 
142 1 1 0.00615862 -0.0401388 0.0154212 0 0 0 2.84078e-06 1.71286e-05 2.16655e-05 6.14e-06 3.03013e-06 -6.91522e-06 -0.000601114 0.000304539 -0.00109233 0.004 624.174 -3.85572 
172 1 1 0.0116013 -0.0446445 0.0189548 0 0 0 2.3472e-06 9.78623e-06 1.38652e-05 5.00618e-06 2.12358e-06 -2.78985e-06 0.002079 0.00155103 -0.00106817 0.004 680.885 -6.73065 
109 1 1 0.0204197 -0.0412797 0.0183142 0 0 0 9.93469e-07 3.38735e-06 5.70181e-06 5.23608e-06 1.5228e-06 2.82322e-06 0.00167528 -0.000854417 -0.000878077 0.004 758.455 -6.17858 
150 1 1 -0.0273271 -0.0370831 0.0158763 0 0 0 3.78358e-06 8.48712e-06 7.36992e-06 -2.84673e-06 -1.65946e-06 -6.19077e-06 4.04905e-05 -0.000775817 0.000520671 0.004 316.371 3.60511 
38 1 1 -0.0197787 -0.0373719 0.0182825 0 0 0 4.71107e-06 1.43406e-05 1.60966e-05 2.55504e-06 -2.67489e-06 -1.80943e-05 0.00180352 -0.0012284 0.000279393 0.004 340.189 5.67003 
199 1 1 -0.0118545 -0.0370265 0.0176501 0 0 0 6.91977e-06 1.83617e-05 1.93301e-05 3.46911e-06 -5.9108e-06 -2.58454e-05 -0.000695028 0.00196077 6.6775e-05 0.004 377.134 6.857 
93 1 1 0.0137643 -0.0377759 0.0156808 0 0 0 3.01559e-06 1.43452e-05 2.0043e-05 6.82855e-06 3.79298e-06 -4.80663e-07 0.00120757 0.00211911 -0.000757172 0.004 708.518 -6.9049 
64 1 1 0.0280176 -0.0365092 0.0179286 0 0 0 -4.38947e-06 2.24834e-06 5.72179e-06 -4.09853e-07 -1.85032e-07 2.32296e-06 0.00162846 -2.45471e-05 0.000300251 0.004 787.516 -3.17016 
22 1 1 -0.0327402 -0.032422 0.0194568 0 0 0 7.96012e-06 8.62533e-06 9.90719e-06 -4.13747e-06 -3.53641e-06 -7.77921e-06 0.00167647 -0.000181347 -0.000145395 0.004 307.317 2.07943 
174 1 1 -0.0224318 -0.0302105 0.0162618 0 0 0 1.1316e-05 2.26555e-05 2.01409e-05 -1.42235e-06 -3.83204e-06 -1.60045e-05 -0.000567814 -0.000665057 -0.00139106 0.004 328.525 4.90173 
32 1 1 -0.00428311 -0.0343966 0.0166776 0 0 0 9.02578e-06 2.2169e-05 2.67879e-05 4.23676e-06 2.17091e-06 -2.19353e-05 0.000223192 0.000910035 -0.00151676 0.004 489.232 3.80253 
128 1 1 0.00347459 -0.0331319 0.017996 0 0 0 8.21531e-06 2.49539e-05 3.75877e-05 5.44803e-06 5.33522e-06 -1.84595e-05 0.00128165 -0.000110609 0.000113503 0.004 585.56 -1.60591 
88 1 1 0.0113687 -0.0304833 0.0177099 0 0 0 9.20724e-07 2.1552e-05 3.67327e-05 3.00387e-06 1.96866e-06 -1.09217e-06 0.00073761 -2.53608e-06 0.000368756 0.004 702.414 -6.56722 
137 1 1 0.0208046 -0.0338186 0.0156334 0 0 0 4.56714e-06 9.95857e-06 1.64284e-05 3.32771e-06 1.96683e-06 1.96695e-06 0.00173422 0.00452618 -0.00120307 0.004 770.876 -5.52513 
154 1 1 0.0339821 -0.0311387 0.0180551 0 0 0 -1.93114e-06 2.63674e-06 4.82889e-06 -1.85478e-06 1.42068e-06 6.40514e-08 0.000596624 0.000862599 -0.00045532 0.004 794.821 -1.51713 
52 1 1 -0.0319909 -0.0252343 0.0161626 0 0 0 1.12616e-05 1.88703e-05 1.78752e-05 -3.82032e-06 -7.12439e-06 -1.5792e-05 -0.000975686 -0.000329013 0.00119308 0.004 307.526 1.97365 
80 1 1 -0.00960093 -0.0265065 0.0175807 0 0 0 1.9913e-05 2.90285e-05 4.16482e-05 -6.84788e-06 2.23056e-06 -2.9639e-05 -0.000654534 0.000658407 0.000236059 0.004 416.131 6.02373 
125 1 1 -0.00117361 -0.0267 0.0173743 0 0 0 1.50597e-05 3.24388e-05 4.12631e-05 1.34216e-06 4.19943e-06 -2.29887e-05 5.02149e-05 -0.00159392 -0.000843531 0.004 527.802 2.08123 
72 1 1 0.0179273 -0.0264316 0.015637 0 0 0 3.76618e-06 1.80571e-05 3.95688e-05 1.55796e-06 3.59974e-06 4.88824e-06 0.0019634 -0.000598729 0.000176467 0.004 752.94 -6.36032 
34 1 1 0.0269648 -0.0287251 0.0154182 0 0 0 -5.358e-06 6.88514e-06 1.2934e-05 -1.3664e-06 3.91566e-07 -1.46863e-06 0.00170719 -0.000380735 0.000875958 0.004 786.65 -2.8568 
218 1 1 -0.0395968 -0.0234663 0.0176916 0 0 0 5.54439e-06 8.34452e-06 8.91167e-06 -2.34532e-06 -4.10302e-06 -8.35288e-06 -0.00025181 -0.00133126 0.00131689 0.004 302.063 0.75452 
70 1 1 -0.0247175 -0.0230257 0.0185787 0 0 0 1.68856e-05 2.87133e-05 2.83698e-05 -6.73193e-06 -6.58611e-06 -2.02761e-05 0.002332 -0.00119501 -0.000372583 0.004 320.959 3.63903 
132 1 1 -0.0171323 -0.0242634 0.0164745 0 0 0 1.75817e-05 2.78918e-05 3.40616e-05 -5.21495e-06 -6.98469e-07 -2.11459e-05 0.00123189 -0.00150301 4.79311e-05 0.004 349.404 5.57282 
196 1 1 0.00716653 -0.023789 0.0170602 0 0 0 9.76092e-07 3.30549e-05 5.23814e-05 2.08978e-07 3.51666e-06 -4.86212e-06 -0.00274651 0.00285139 -0.00326307 0.004 665.046 -5.11393 
362 1 1 0.0243874 -0.0214292 0.0170616 0 0 0 -6.74e-06 8.76083e-06 3.86305e-05 -4.38818e-06 4.10947e-07 3.75614e-06 0.00125103 0.00650942 -0.000506333 0.004 786.593 -2.98301 
49 1 1 0.0387628 -0.0248027 0.0179815 0 0 0 -1.64744e-06 2.66661e-06 4.21494e-06 -2.39007e-06 2.35204e-06 5.20546e-07 0.000160095 5.55474e-05 0.000189409 0.004 797.989 -0.769991 
173 1 1 -0.0431191 -0.0163148 0.0177079 0 0 0 5.69383e-06 5.37711e-06 8.57883e-06 -2.16174e-06 -1.22148e-06 -5.82166e-06 -0.000200588 -0.00136023 0.000837195 0.004 301.494 0.559907 
50 1 1 -0.0295064 -0.0167659 0.0182813 0 0 0 1.79428e-05 3.56039e-05 3.57499e-05 -7.16357e-06 -8.51622e-06 -1.82183e-05 0.00211224 -0.000707871 -9.74679e-05 0.004 310.242 2.23408 
202 1 1 -0.0134618 -0.0172167 0.0161108 0 0 0 2.5876e-05 3.98947e-05 6.27027e-05 -6.2649e-06 -1.99949e-06 -1.40156e-05 0.00132077 -0.00181867 -0.000551278 0.004 383.767 5.9405 
86 1 1 -0.0052486 -0.0199157 0.0183758 0 0 0 2.2557e-05 3.29642e-05 6.33568e-05 -8.69579e-06 4.29819e-07 -2.13744e-05 0.00468985 0.000995123 -0.00126266 0.004 481.673 4.01134 
129 1 1 0.0138597 -0.0196295 0.016286 0 0 0 1.5288e-06 1.98642e-05 4.82793e-05 -3.84477e-06 1.58049e-06 4.76188e-06 0.00198075 -0.00305978 0.000372701 0.004 727.853 -6.14633 
82 1 1 0.0291402 -0.0151358 0.0159324 0 0 0 -8.42829e-06 3.15809e-06 2.63275e-05 -5.37283e-06 -1.36099e-06 5.94582e-06 0.00149116 -0.000361825 -0.000254315 0.004 792.881 -1.9737 
1 1 1 0.0424683 -0.0178049 0.0178802 0 0 0 -1.55066e-06 3.5496e-06 2.2274e-06 -9.58845e-07 1.32003e-06 4.6507e-06 -0.000738501 0.000754744 -0.000596711 0.004 799.014 -0.432228 
168 1 1 -0.0224798 -0.0136303 0.016417 0 0 0 2.34699e-05 3.7161e-05 4.92905e-05 -7.10873e-06 -3.89056e-06 -1.31834e-05 0.00127539 -0.00174393 -0.000483901 0.004 328.697 4.32044 
121 1 1 -0.00514892 -0.0120184 0.0174569 0 0 0 2.41161e-05 3.44816e-05 7.57187e-05 -7.75007e-06 -2.0241e-07 -3.69439e-06 -0.00213553 -0.00136686 0.00138501 0.004 495.896 2.65425 
28 1 1 0.00814314 -0.0139812 0.0183176 0 0 0 1.25722e-05 2.92269e-05 8.05167e-05 -6.58383e-06 1.3495e-06 8.257e-06 0.00278845 -4.22142e-05 0.00134899 0.004 681.964 -6.77404 
42 1 1 0.0200409 -0.0148104 0.0172659 0 0 0 -7.46712e-07 1.66998e-05 5.78663e-05 -9.0456e-06 9.36605e-07 1.00512e-05 -0.000859138 0.00198999 -0.000791664 0.004 768.929 -4.64102 
60 1 1 0.0376281 -0.011647 0.0161719 0 0 0 -6.02552e-06 2.61484e-07 1.52548e-05 -4.38744e-06 1.89793e-06 2.4339e-06 0.000108121 -0.00078325 -0.000617062 0.004 798.579 -0.569165 
135 1 1 -0.0452123 -0.008651 0.0176759 0 0 0 7.66203e-06 3.81493e-06 8.96618e-06 -3.11337e-06 -1.16003e-06 -3.25786e-06 0.000354874 0.000970506 -0.000759977 0.004 300.592 0.276648 