ITEM: TIMESTEP
22400
ITEM: NUMBER OF ATOMS
890
ITEM: BOX BOUNDS mm mm mm
-0.05 0.05
-0.05 0.05
0 0.15
ITEM: ATOMS id type type x y z ix iy iz vx vy vz fx fy fz omegax omegay omegaz radius f_Temp[0] f_heatFlux[0] 
59 1 1 -0.000715523 -0.0460982 0.00395594 0 0 0 2.65198e-05 -2.39616e-05 -1.20861e-05 1.16104e-05 6.43823e-06 2.47696e-05 0.00123737 0.00539351 -0.00320438 0.004 468.101 27.3784 
170 1 1 -0.0173497 -0.0426415 0.00397292 0 0 0 7.94073e-05 -5.9115e-05 -2.57501e-05 2.51623e-05 6.30619e-06 3.59958e-05 -0.00375292 0.00287645 -0.00515166 0.004 308.587 5.98968 
15 1 1 -0.00975016 -0.0449638 0.00393395 0 0 0 4.8745e-05 -3.39752e-05 -3.08799e-05 4.93985e-06 2.83499e-05 4.80033e-05 0.00376997 0.00893196 0.00234959 0.004 329.579 13.1218 
116 1 1 0.00648765 -0.0428197 0.00395869 0 0 0 2.45647e-05 -4.14991e-05 -1.24166e-05 7.60684e-06 1.2949e-05 2.43733e-05 0.0101905 0.00279938 -0.000620813 0.004 678.693 -14.5546 
158 1 1 0.0143627 -0.0437626 0.00389979 0 0 0 1.52075e-05 -2.16471e-05 -1.34007e-05 -1.05861e-05 2.8308e-05 2.82204e-05 9.94731e-05 0.00163879 0.000307877 0.004 771.397 -12.7709 
98 1 1 0.021678 -0.0406527 0.00394259 0 0 0 1.49595e-05 -2.23462e-05 -1.36921e-05 -5.44105e-06 1.92556e-05 6.75689e-06 -0.00037963 -0.00154243 -0.00151519 0.004 794.626 -4.37886 
169 1 1 -0.0244315 -0.0390661 0.00391415 0 0 0 0.000134853 -0.000113564 -7.50279e-05 0.000119212 5.90845e-05 -8.39396e-06 -0.00398224 0.00875111 -0.0179467 0.004 301.579 1.56456 
89 1 1 -0.0118119 -0.0369238 0.00395455 0 0 0 0.000130848 -6.47596e-05 -4.06562e-05 0.000152762 4.81102e-05 4.87145e-06 -0.00353361 -0.00508868 0.0183998 0.004 335.997 12.6942 
152 1 1 -0.00418331 -0.0390223 0.00390527 0 0 0 9.27544e-05 -1.02977e-05 -1.05823e-05 5.79851e-05 4.37026e-05 6.43054e-05 -0.000407016 0.00815235 -0.0136004 0.004 432.581 12.6457 
23 1 1 0.0153484 -0.0358821 0.00391125 0 0 0 3.03406e-05 -4.91634e-05 -2.85494e-05 -2.16331e-05 5.04715e-05 4.70033e-05 0.00499195 0.00288328 -0.000828985 0.004 784.118 -10.4988 
118 1 1 -0.030753 -0.0342401 0.00392726 0 0 0 0.000213424 -0.000335449 2.92671e-05 -8.80471e-05 3.30772e-06 0.000112809 0.0937626 0.0412915 -0.0272077 0.004 300.15 0.205754 
30 1 1 -0.0188784 -0.0333721 0.00395258 0 0 0 0.000283447 -0.000236433 -0.00010922 0.000160112 -3.80938e-05 -5.52592e-05 -0.000866516 0.0197785 0.00243579 0.004 306.105 3.96583 
215 1 1 -0.0060366 -0.0313238 0.00390645 0 0 0 0.000129146 -7.40561e-06 -1.30981e-05 9.00066e-05 7.76187e-05 2.00458e-05 -0.00372694 0.0053728 0.0112124 0.004 375.098 22.9756 
74 1 1 0.00184151 -0.0338193 0.00390683 0 0 0 7.43052e-05 -3.0743e-05 -1.5709e-05 -9.47037e-06 8.54039e-05 4.2487e-05 0.00571512 0.0105793 0.00871696 0.004 583.678 -18.0368 
24 1 1 0.00917872 -0.0308341 0.00392036 0 0 0 5.44382e-05 -4.24698e-05 9.83236e-07 -5.83503e-05 6.66621e-05 3.15617e-05 0.0107346 0.005979 -0.00493701 0.004 741.307 -20.7042 
198 1 1 0.0259424 -0.0339524 0.00395553 0 0 0 5.72469e-05 -5.38641e-05 -1.63426e-05 -6.46916e-05 2.50404e-05 -2.05904e-05 0.0111288 0.0111878 -0.00518126 0.004 799.15 -1.0071 
161 1 1 0.0335301 -0.0316074 0.00391357 0 0 0 2.80798e-05 -2.78246e-05 -1.15329e-05 -1.3068e-05 8.44638e-06 -8.47089e-06 0.00334155 0.000467995 0.00402601 0.004 799.88 -0.186573 
8 1 1 -0.0322694 -0.0264175 0.00398187 0 0 0 0.000977302 -0.000362478 -0.000519628 -0.000263362 0.000894995 0.00208433 -0.212545 -0.25997 0.261152 0.004 300.097 0.138686 
12 1 1 -0.024414 -0.0276967 0.00386371 0 0 0 0.00079603 -0.000181097 1.67734e-05 0.000113684 9.1288e-05 0.000440959 0.0190787 0.168882 -0.164556 0.004 301 1.03468 
188 1 1 -0.0131744 -0.0277765 0.0039658 0 0 0 0.00033533 -0.000166849 -2.32663e-05 0.000369514 5.5271e-05 0.000204203 0.0461 0.0576779 0.0150952 0.004 310.272 6.79141 
77 1 1 -0.000100169 -0.0260809 0.00389422 0 0 0 0.000119979 -2.83156e-05 1.39006e-05 -4.18654e-05 0.000101897 2.37378e-05 0.0117681 0.0205556 -0.0220231 0.004 515.418 15.072 
113 1 1 0.0165645 -0.0280204 0.00388653 0 0 0 6.58659e-05 -8.0423e-05 -7.71125e-06 -7.23282e-05 7.60157e-05 4.06327e-05 0.0118924 0.0123263 -0.00579768 0.004 788.098 -8.11607 
183 1 1 0.0384542 -0.0253742 0.00393845 0 0 0 1.888e-05 -1.13049e-05 -3.01286e-06 -5.91576e-06 -7.83816e-06 7.65098e-07 -0.00116833 0.00050852 -0.00124038 0.004 799.984 -0.0303358 
162 1 1 -0.0396292 -0.0234196 0.003905 0 0 0 0.000323349 -2.55106e-05 5.67002e-05 -0.00163109 0.00132096 0.00313166 0.00722918 0.221371 -0.241946 0.004 300.009 0.0162775 
53 1 1 -0.0272059 -0.0202499 0.00395018 0 0 0 0.00102307 -0.000428339 -0.000966191 0.000251479 0.000704224 0.000840292 0.072223 0.124661 0.185436 0.004 300.28 0.364706 
148 1 1 -0.0187586 -0.0220648 0.00393796 0 0 0 0.000572537 -0.000102442 1.91208e-05 0.000631297 5.15682e-05 -6.55798e-05 0.0372446 0.165473 0.0578326 0.004 302.725 2.39226 
195 1 1 -0.00727802 -0.0215502 0.00394553 0 0 0 0.000110476 -6.47919e-05 1.23292e-05 -0.000118259 0.000156719 0.000154674 0.0109116 0.013972 0.0321198 0.004 339.295 17.1729 
179 1 1 0.00736653 -0.0231031 0.00394281 0 0 0 0.000108341 -1.88143e-05 4.13809e-05 -9.12875e-05 7.71873e-05 -2.12443e-05 0.00258615 0.0196861 -0.0162108 0.004 751.198 -20.8846 
95 1 1 0.0148508 -0.0203101 0.00393205 0 0 0 0.00012374 -7.83772e-05 1.32141e-05 -2.38061e-05 6.56076e-05 1.15385e-05 0.0041045 -0.000990292 -0.0126589 0.004 786.119 -8.97677 
76 1 1 0.0230029 -0.0233057 0.00397474 0 0 0 7.88518e-05 -9.38493e-05 -1.21357e-05 -4.7294e-05 2.46076e-05 -5.6176e-05 0.0163045 0.0111331 0.00318648 0.004 799.04 -1.03443 
100 1 1 0.0325588 -0.0200895 0.00388591 0 0 0 3.73847e-05 -4.903e-05 -3.97665e-06 -4.05043e-05 -1.29067e-05 -7.48509e-06 0.00662111 0.00489099 0.00861378 0.004 799.926 -0.117483 
65 1 1 -0.0430735 -0.0162823 0.00392816 0 0 0 7.18374e-05 2.23456e-06 0.00123732 -0.000618702 0.00213301 0.00192659 0.0463752 -0.0216679 0.210706 0.004 300.002 0.00384621 
102 1 1 -0.0351561 -0.0155169 0.00394218 0 0 0 0.000704439 -0.00178673 0.000332915 -0.00177929 0.00111742 0.000790546 0.490264 0.407709 0.397807 0.004 300.02 0.0357061 
213 1 1 -0.013259 -0.0162744 0.00397361 0 0 0 0.00022838 -5.22203e-05 -1.87319e-05 0.000159999 0.000267716 -0.000167229 0.0187625 0.0471118 0.0248603 0.004 306.98 5.41557 
10 1 1 0.00114885 -0.0182525 0.00474998 0 0 0 8.55996e-05 -3.60737e-05 8.40094e-05 -0.000115894 6.86784e-05 -2.77327e-05 0.000978486 -0.00234769 0.0297053 0.004 615.475 -21.0701 
5 1 1 0.00879814 -0.0152554 0.00390314 0 0 0 6.42109e-05 -5.87904e-05 4.86708e-05 -5.15519e-05 4.41925e-05 -1.60791e-05 0.00379108 0.0137852 0.018646 0.004 746.642 -17.8667 
96 1 1 0.0211695 -0.0155242 0.00395648 0 0 0 7.23513e-05 -0.000110305 -1.66264e-06 -1.60564e-06 -1.51473e-05 1.33117e-05 0.0170262 0.0147995 0.0133165 0.004 798.185 -1.787 
167 1 1 0.0421924 -0.0183683 0.0039211 0 0 0 1.91055e-06 -1.04685e-05 2.39166e-06 -3.56042e-06 -3.28331e-06 9.71155e-07 0.00267053 0.000577337 0.00442679 0.004 799.999 -0.00296089 
124 1 1 -0.0290074 -0.0104727 0.00394622 0 0 0 -0.000138416 -0.000407735 -3.63568e-05 -0.00129461 6.78161e-05 0.00069299 0.0825351 0.021789 -0.0415859 0.004 300.2 0.279706 
220 1 1 -0.0217755 -0.0144554 0.00398057 0 0 0 0.000325558 -0.000155957 -0.00031132 6.13114e-05 0.000414485 -0.000639339 0.17193 -0.0607472 0.0465598 0.004 301.999 1.85432 
144 1 1 -0.00535477 -0.013804 0.00388173 0 0 0 2.89272e-05 -4.38654e-05 5.02818e-05 -3.07898e-05 3.6681e-06 -8.98912e-05 0.00353771 0.00394719 -0.0122566 0.004 430.063 20.0385 
26 1 1 0.00255603 -0.010463 0.00390565 0 0 0 1.73386e-05 -5.7872e-05 6.06591e-05 -2.25002e-06 3.27165e-05 -5.90148e-05 0.00444827 -0.0037964 -0.0108108 0.004 612.788 -15.8249 
194 1 1 0.0287355 -0.013103 0.00393075 0 0 0 4.06764e-05 -8.22136e-05 -6.90247e-07 -4.02015e-05 -6.43551e-06 6.20776e-06 0.0090363 0.00430136 -0.00617177 0.004 799.812 -0.255937 
37 1 1 0.0366702 -0.0122306 0.00393296 0 0 0 1.85531e-05 -4.70272e-05 8.73407e-06 -3.38887e-05 -6.43064e-05 7.48754e-06 0.00902325 0.00302698 0.0117977 0.004 799.99 -0.0173623 
219 1 1 0.0447285 -0.0108715 0.00390886 0 0 0 -6.60784e-06 -3.77608e-06 2.31969e-06 -2.01354e-06 8.52059e-06 5.95394e-06 -0.00094398 -0.00103297 -0.001357 0.004 800 -0.000329033 
636 1 1 -0.0451989 -0.0086439 0.00391363 0 0 0 0.000134864 -0.000557423 0.00183901 -0.0013151 0.00132791 -0.000285443 0.150186 -0.0950288 -0.278177 0.004 300 0.000530294 
39 1 1 -0.0161461 -0.00885145 0.00388968 0 0 0 7.96083e-05 -6.82422e-05 2.05024e-05 -0.00010751 -2.18969e-05 -0.000116345 -0.015715 0.00916702 0.00470469 0.004 314.804 8.27815 
171 1 1 -0.00395951 -0.00597836 0.00392036 0 0 0 3.30503e-05 -3.15586e-05 9.6067e-06 2.6005e-05 -3.09396e-05 -0.00014922 -0.00244052 0.00236966 0.00423681 0.004 438.713 21.1942 
200 1 1 0.0146301 -0.00986517 0.00396369 0 0 0 1.70566e-05 -7.11325e-05 1.03669e-05 -6.88171e-05 2.17069e-05 7.6459e-06 0.0121311 0.00109294 -0.0031995 0.004 788.131 -7.55841 
21 1 1 0.0222522 -0.00762154 0.00394327 0 0 0 3.43302e-05 -0.000121154 6.94153e-06 -5.94809e-05 -1.98634e-05 2.97815e-05 0.018146 0.0103756 -0.0088395 0.004 798.583 -1.41727 
17 1 1 0.0298459 -0.00520707 0.00394859 0 0 0 2.22713e-05 -0.000106764 8.77877e-06 -6.78982e-05 -2.31324e-05 5.77762e-05 0.0185254 0.00726607 0.0119109 0.004 799.865 -0.19019 
477 1 1 -0.0445837 -0.000711309 0.00396015 0 0 0 0.000403904 -0.000777183 0.00168356 -0.000415226 0.000184272 0.00161759 -0.131788 0.159564 0.239667 0.004 300.001 0.00147444 
140 1 1 -0.0352662 -0.00371832 0.00387175 0 0 0 -0.000307716 -0.000151123 -6.06738e-05 -0.00162829 -0.000499977 0.000167304 0.0864852 -0.0890518 -0.164472 0.004 300.06 0.0951199 
119 1 1 -0.0273884 -0.00269844 0.00396367 0 0 0 6.28977e-06 -0.000273622 4.50203e-05 -0.000624933 -0.000534639 5.25813e-05 -0.00753426 0.0259697 0.0184475 0.004 300.634 0.76359 
207 1 1 -0.0194903 -0.00168743 0.00389473 0 0 0 1.71598e-05 -0.000167049 -8.4629e-05 -0.000172617 -0.000126574 -0.000147731 0.025891 -0.00513827 0.0155111 0.004 305.263 4.46711 
69 1 1 -0.0111568 -0.00264563 0.00392995 0 0 0 -1.93719e-05 -3.66609e-05 -3.7464e-05 -6.49425e-05 -8.15372e-05 -0.000159032 -0.00105471 -0.00489868 0.0224661 0.004 334.063 15.6628 
221 1 1 0.00874831 -0.00448986 0.0039319 0 0 0 1.36331e-05 -8.58721e-05 3.62641e-05 -8.89341e-06 5.72413e-05 5.39846e-05 0.0203925 0.00257037 0.0017331 0.004 758.989 -14.9124 
457 1 1 0.0163507 -0.00208054 0.00395919 0 0 0 -1.58468e-06 -7.08882e-05 4.04317e-05 -2.40821e-05 4.27574e-05 2.33969e-05 0.00304972 -0.000525136 -0.0012829 0.004 794.33 -4.41027 
155 1 1 0.0378914 -0.00224671 0.00393685 0 0 0 2.03639e-05 -6.65247e-05 -1.97437e-05 -4.56944e-05 -4.77782e-05 -7.51114e-06 0.00651278 0.000923239 0.00686946 0.004 799.99 -0.0181557 
665 1 1 0.0459184 -0.00307627 0.0039426 0 0 0 4.82296e-06 -9.83357e-06 -3.29652e-06 -1.74338e-05 2.51966e-05 -1.18034e-05 0.00117728 0.000822364 -0.0011855 0.004 800 -0.000600521 
120 1 1 0.00918504 -0.0371091 0.00876938 0 0 0 8.08088e-05 -8.36029e-05 -1.28823e-05 -4.79803e-05 6.33752e-05 5.00545e-05 0.00373514 0.0127002 0.000741009 0.004 746.901 -19.9093 
9 1 1 -0.0247142 -0.0333596 0.00937603 0 0 0 0.000410828 -0.000181839 -4.97646e-05 0.000150724 8.61685e-05 5.20872e-05 0.0223676 -0.0197913 -0.0463261 0.004 300.832 0.924711 
101 1 1 -0.0188617 -0.0277195 0.00955118 0 0 0 0.000920812 -0.000197313 -8.20327e-05 0.000665462 0.000146628 9.93281e-05 0.00939131 -0.0190468 -0.100183 0.004 302.688 2.61272 
48 1 1 0.0222001 -0.0293138 0.0092003 0 0 0 9.9316e-05 -0.00011779 -2.08819e-05 -7.17398e-05 3.05545e-05 9.84357e-06 0.000894951 -0.00327577 0.0111275 0.004 797.071 -2.77693 
75 1 1 0.0293602 -0.0261744 0.00787423 0 0 0 8.14276e-05 -8.36423e-05 -3.76886e-06 -4.75881e-05 -3.21932e-05 -3.86672e-05 0.00382332 0.00599341 -0.00336713 0.004 799.671 -0.428569 
46 1 1 -0.0327889 -0.020582 0.0095788 0 0 0 0.0013364 -0.00236813 -0.00135829 -0.00267125 0.00241132 0.00376616 -0.11656 -0.150166 -0.226675 0.004 300.091 0.141698 
33 1 1 -0.013034 -0.0220257 0.00949545 0 0 0 0.000577134 -5.34378e-05 1.14484e-05 0.000357548 0.000309378 0.000287655 -0.0462974 0.022674 -0.0312758 0.004 317.517 7.60535 
11 1 1 0.0268904 -0.0187446 0.00924462 0 0 0 0.000107611 -0.000129242 1.94092e-05 -7.87705e-05 -1.65613e-05 -5.39456e-05 0.00323659 0.00931054 0.00629464 0.004 799.516 -0.607092 
71 1 1 -0.0372746 -0.0095482 0.00876244 0 0 0 0.000480212 -0.00128182 -0.000503964 -0.00117481 7.96232e-05 0.00230469 0.17999 0.419127 0.371388 0.004 300.01 0.018642 
62 1 1 -0.0228068 -0.00771348 0.00813982 0 0 0 7.26883e-06 -0.00036421 -4.10956e-05 -0.000494587 -0.000399795 -0.000103965 0.000344788 -0.0206899 0.0379925 0.004 301.995 1.93606 
19 1 1 -0.00970616 -0.0090566 0.0084906 0 0 0 0.000107878 -3.53741e-05 4.64167e-05 -3.26524e-05 -8.94477e-06 -0.000162012 -0.0165172 0.00538517 -0.00829756 0.004 379.788 20.7632 
187 1 1 0.00796763 -0.009882 0.00975736 0 0 0 0.000130873 -9.15102e-05 5.44696e-05 -0.000181438 1.79056e-05 0.000111464 -0.0191204 0.0313273 -0.0100363 0.004 769.083 -15.6398 
157 1 1 0.039582 -0.0075193 0.00963101 0 0 0 -1.76212e-07 -5.30954e-05 1.46102e-05 -0.000100853 -5.73906e-05 -1.91248e-05 -0.00421696 -0.00552931 -0.00233671 0.004 799.999 -0.00326082 
18 1 1 0.00229164 -0.00404903 0.00852628 0 0 0 1.43382e-05 -0.000104571 4.96891e-05 -4.17e-05 2.42992e-05 -1.58945e-05 -0.00438876 0.00208715 0.00458834 0.004 605.447 -14.9154 
185 1 1 -0.0053113 -0.045735 0.0104437 0 0 0 5.03835e-05 -2.58665e-05 -3.77466e-05 3.70816e-05 2.34298e-05 5.64462e-05 -0.006614 -0.00914721 -0.00953846 0.004 415.345 17.3257 
83 1 1 0.00256755 -0.0459474 0.011266 0 0 0 4.06068e-05 -3.72819e-05 -1.76085e-06 -4.33576e-06 1.18175e-05 3.48249e-05 -0.0039063 -0.00255807 -0.00271923 0.004 645.109 -28.5873 
58 1 1 -0.0218565 -0.0405824 0.0112768 0 0 0 0.000209763 -0.000169914 -0.000136598 0.0001023 3.49349e-06 -8.04792e-05 -0.00637296 0.0213354 -0.0411098 0.004 301.449 1.61747 
105 1 1 -0.0135861 -0.0439661 0.0108787 0 0 0 0.000111975 -2.7667e-05 -2.37459e-05 0.000178856 -5.98319e-05 1.35111e-05 -0.010431 0.00016566 -0.0235215 0.004 308.124 5.96768 
223 1 1 0.0103958 -0.0448674 0.0106706 0 0 0 3.5599e-05 -4.62118e-05 -5.57767e-06 -1.4525e-05 4.22873e-05 6.78576e-05 0.00492474 0.00488621 -0.00198033 0.004 747.398 -21.4385 
217 1 1 0.0179433 -0.0424254 0.0108281 0 0 0 2.73683e-05 -5.56866e-05 -4.22643e-06 -2.6227e-06 6.4335e-05 2.91137e-05 0.00936364 -0.00117744 0.000763632 0.004 786.548 -9.12852 
6 1 1 -0.0162613 -0.0350312 0.0113118 0 0 0 0.000348852 -0.000224019 -6.53133e-05 0.000224358 -9.10899e-05 5.59858e-05 0.0117785 -0.0412834 0.01029 0.004 307.702 5.89755 
151 1 1 -0.00801314 -0.0382604 0.0108114 0 0 0 0.000181993 -5.54551e-05 -2.64561e-05 5.32779e-05 7.42864e-06 0.000121721 0.0172455 0.0101074 -0.000676004 0.004 353.494 18.2246 
2 1 1 0.00044424 -0.0383081 0.010271 0 0 0 0.000135576 -5.36891e-05 -1.95443e-05 -5.69507e-05 8.83695e-05 7.0568e-05 0.0011921 0.0031814 -0.0057005 0.004 563.682 -14.9519 
117 1 1 0.0249196 -0.0387266 0.0109176 0 0 0 2.70815e-05 -4.2739e-05 -4.85474e-06 2.08837e-05 2.21778e-05 9.27641e-06 0.00215169 0.00418261 0.00195289 0.004 797.72 -2.27504 
13 1 1 -0.0323451 -0.0327557 0.0115372 0 0 0 0.000156029 -0.000489922 -0.000272031 -0.000322744 0.000579629 -0.000439245 -0.084009 -0.0523445 0.0730979 0.004 300.117 0.17627 
193 1 1 -0.0098256 -0.0305007 0.0107688 0 0 0 0.000254735 -7.01712e-05 9.36967e-05 0.000106134 6.65129e-05 0.000142498 0.0106805 0.0250018 0.00988926 0.004 338.625 17.7357 
47 1 1 -0.0013374 -0.0305436 0.010385 0 0 0 0.000200553 -6.52462e-05 3.92266e-05 -0.000118525 0.000128128 1.21959e-05 0.0037161 0.0221513 -0.0019676 0.004 497.48 15.8805 
153 1 1 0.00656483 -0.0300232 0.0113662 0 0 0 0.000167221 -9.56337e-05 2.67014e-05 -0.000132283 0.000113367 5.75754e-05 0.000945271 0.00553133 -0.0106577 0.004 700.177 -20.897 
41 1 1 0.0148079 -0.0317915 0.010654 0 0 0 0.000114631 -0.000128899 -1.02201e-05 -0.00010363 0.000106188 6.53397e-05 0.00797588 0.00817624 -0.0135383 0.004 786.17 -9.59396 
163 1 1 0.0311566 -0.0339182 0.0111114 0 0 0 3.76745e-05 -4.44576e-05 -1.1151e-05 1.52982e-05 -1.33768e-05 8.97807e-06 0.00463832 0.0013948 0.000880386 0.004 799.696 -0.404382 
214 1 1 -0.0374995 -0.0268278 0.0107123 0 0 0 0.000424489 -0.000396567 -0.00046824 -0.00157714 0.00105074 0.00190153 -0.0379812 0.208198 -0.20704 0.004 300.029 0.0504237 
210 1 1 0.0364694 -0.0280971 0.0111134 0 0 0 3.19477e-05 -2.88736e-05 1.05793e-05 -1.02302e-05 -2.35155e-05 1.57304e-06 0.00496713 0.00309443 0.000298466 0.004 799.965 -0.0587419 
108 1 1 -0.0260916 -0.0246396 0.0109276 0 0 0 0.00161125 -0.000707416 -8.59689e-06 -0.00026171 -0.000827535 0.00040018 0.0749038 0.0015528 0.149364 0.004 300.625 0.751239 
40 1 1 -0.00551076 -0.0238699 0.0113287 0 0 0 0.000282143 -6.41648e-05 4.86747e-05 -2.19387e-05 0.000209239 9.34791e-05 -0.0127095 0.00850748 -0.00441738 0.004 407.865 17.5096 
55 1 1 0.0023625 -0.0232852 0.0108248 0 0 0 0.000204679 -0.000110607 5.07188e-05 -0.000160421 0.000125814 8.95982e-05 0.00833006 -0.00728346 0.00381123 0.004 618.968 -13.1204 
91 1 1 0.0120922 -0.0243836 0.0101855 0 0 0 0.000178966 -0.000124438 1.29621e-05 -0.00014497 6.91993e-05 6.09715e-06 0.0036825 0.00190386 -0.00184861 0.004 776.226 -13.4609 
112 1 1 0.0192798 -0.020536 0.0105071 0 0 0 0.000154546 -0.000175946 1.46851e-05 -7.7986e-05 4.3632e-05 2.11946e-05 0.00247446 -0.00112319 0.0069779 0.004 795.817 -3.8355 
178 1 1 0.0318661 -0.0225251 0.0144788 0 0 0 6.45317e-05 -8.46044e-05 2.02433e-05 -9.17933e-05 -8.4429e-05 -8.83171e-06 -0.00185023 -0.0124596 0.00676244 0.004 799.93 -0.11107 
131 1 1 0.0407766 -0.0214682 0.0110513 0 0 0 2.52026e-05 -3.02638e-05 6.75431e-06 -3.31942e-05 -1.31132e-05 -9.482e-06 -0.00133374 0.0018837 0.00317013 0.004 799.996 -0.00925692 
160 1 1 -0.0414719 -0.0199453 0.0108069 0 0 0 -0.000133498 0.000342079 0.00144124 0.00169073 0.00339911 0.00372287 0.136998 -0.235583 0.269577 0.004 300.003 0.00643303 
43 1 1 -0.0361089 -0.0151049 0.0142521 0 0 0 0.000741408 -0.000667127 -0.000694946 0.000998183 0.0007189 0.00502947 -0.0762223 -0.00649122 -0.466576 0.004 300.039 0.0633592 
4 1 1 -0.0270313 -0.0151194 0.0100708 0 0 0 0.00116101 -0.0012304 -0.0011668 -0.0024517 0.000178235 0.00197181 0.395941 -0.0521339 0.841644 0.004 300.451 0.563747 
104 1 1 -0.0203004 -0.0192309 0.0111971 0 0 0 0.000965514 -0.000329796 3.92629e-06 0.000153047 0.00013256 -0.000135282 -0.0349008 -0.00024815 0.108337 0.004 303.248 2.74525 
20 1 1 -0.00745428 -0.016222 0.0110954 0 0 0 0.000184845 -5.96831e-05 7.78428e-05 3.59318e-05 7.13506e-05 -2.34059e-05 0.00924024 0.0291856 0.0239187 0.004 393.129 22.9943 
45 1 1 0.00082556 -0.0164515 0.0146046 0 0 0 9.40356e-05 -0.000123542 9.68309e-05 -6.80918e-05 0.000150058 5.01642e-05 0.00343543 -0.00625504 -0.00514991 0.004 590.243 -18.7365 
159 1 1 0.00795199 -0.0177075 0.011347 0 0 0 0.000146831 -0.000150065 9.70741e-05 -7.75861e-05 7.17581e-05 6.8061e-05 0.0194764 -0.00329871 0.00612474 0.004 736.901 -18.2091 
136 1 1 0.0347934 -0.0163369 0.0104654 0 0 0 5.81684e-05 -8.4545e-05 1.76161e-05 -6.81183e-05 -6.75349e-05 1.36211e-05 0.00149049 0.00531099 -9.16682e-05 0.004 799.978 -0.0403181 
177 1 1 -0.0443268 -0.0125343 0.0108008 0 0 0 -0.000142803 4.2673e-05 0.00184693 -0.000602279 0.000551175 0.00198902 -0.0440541 -0.0822604 -0.0711147 0.004 300.001 0.00255764 
139 1 1 -0.0168203 -0.0121099 0.0110434 0 0 0 0.000256624 -0.000130341 -5.06556e-05 -5.42287e-05 6.964e-05 -0.00026015 0.0168575 0.0260773 0.0569057 0.004 310.05 6.65062 
211 1 1 -0.00209488 -0.0104149 0.0103074 0 0 0 5.42878e-05 -7.29532e-05 7.94596e-05 -1.89821e-05 4.32081e-05 -0.000120879 0.00867653 0.00170307 -0.00703008 0.004 507.509 4.6467 
54 1 1 0.0149159 -0.0138957 0.0108307 0 0 0 0.00014621 -0.000184839 2.71815e-05 -0.0001032 4.38363e-05 3.79595e-05 -0.00716303 0.0385916 -0.00793094 0.004 789.609 -6.80065 
84 1 1 0.0232724 -0.0118007 0.01066 0 0 0 0.00010382 -0.000191189 -2.8513e-06 -0.000128 -4.48598e-05 3.84657e-05 -0.00644532 0.00410141 0.00776231 0.004 799.234 -0.942126 
180 1 1 0.0438205 -0.0140996 0.0110464 0 0 0 1.77418e-06 -1.50642e-05 8.74836e-06 -2.17143e-05 1.05757e-05 2.44924e-06 0.0016523 0.00343088 0.00419112 0.004 800 -0.000933913 
103 1 1 0.0174446 -0.00636549 0.0105705 0 0 0 7.88911e-05 -0.000224683 1.58455e-05 -0.000114571 2.98691e-05 5.1399e-05 0.0295151 0.0214127 0.0126577 0.004 795.819 -3.8423 
156 1 1 0.0308895 -0.0094609 0.0106297 0 0 0 6.38056e-05 -0.000143324 6.67763e-06 -8.08941e-05 -4.9757e-05 7.60241e-05 -0.00348298 -0.0033062 0.0038648 0.004 799.896 -0.163418 
197 1 1 -0.0457832 -0.00471335 0.0107499 0 0 0 -0.00043039 -0.000677399 0.00228087 0.000289896 0.00126052 0.00036091 -0.14617 -0.422186 -0.191403 0.004 300 0.000870074 
87 1 1 -0.0386089 -0.00381493 0.014132 0 0 0 -0.000236345 -0.00207626 -0.000110597 0.00293345 0.00363643 0.00502768 -0.245802 -0.140289 -0.0641509 0.004 300.005 0.00910795 
130 1 1 -0.031359 -0.00387357 0.0107774 0 0 0 0.00031902 -0.000337388 5.42021e-05 -0.00106349 -0.000324166 -0.000622281 -0.0055129 0.150486 0.115576 0.004 300.091 0.141327 
604 1 1 -0.0224584 -0.000301199 0.0110783 0 0 0 -0.000134558 -0.000288345 -0.000291784 -0.000360652 0.000201993 -0.000240686 0.00852592 -0.0531618 -0.0458471 0.004 303.836 3.31902 
146 1 1 -0.015507 -0.00400762 0.0103909 0 0 0 -7.97247e-06 -0.00020756 -9.57205e-05 -0.000231973 -1.96692e-05 -0.000203919 -0.00418764 -0.0173465 0.0690445 0.004 321.83 11.61 
57 1 1 -0.00517452 -0.00310611 0.0111951 0 0 0 -2.30449e-05 -8.93698e-05 -1.81004e-05 -0.000117383 -4.38238e-05 -0.000219941 0.00143518 -0.0140438 0.0224507 0.004 441.301 18.6614 
493 1 1 0.0116961 -0.000874882 0.0103663 0 0 0 1.28868e-05 -0.000179746 6.17657e-05 -3.15279e-05 5.54466e-05 9.45146e-05 -0.0129514 -0.00452501 -0.00796031 0.004 781.651 -11.4719 
31 1 1 0.0250488 -0.00405395 0.0104598 0 0 0 4.48221e-05 -0.000205566 -3.29939e-05 -0.000113079 -3.12039e-05 8.86579e-05 0.000476023 -0.00280262 0.00621841 0.004 799.259 -0.913443 
588 1 1 0.0326002 -0.00174501 0.0105428 0 0 0 3.11303e-05 -0.000154633 -3.07079e-05 -6.32687e-05 -3.53251e-05 4.13086e-05 -0.0054049 0.0037469 0.00494841 0.004 799.886 -0.17756 
63 1 1 0.0459242 -0.00327875 0.0119252 0 0 0 6.73998e-06 -1.54168e-05 -9.25924e-07 -4.09355e-05 2.47295e-05 1.83521e-05 -0.00849437 -0.00024694 0.00177408 0.004 799.999 -0.0018118 
107 1 1 -0.00850574 -0.0452732 0.0176768 0 0 0 0.000134683 -9.01888e-05 2.38432e-05 -2.09739e-05 5.4031e-05 8.67494e-05 0.0266332 0.0406208 -0.0163058 0.004 373.809 23.2249 
222 1 1 -0.00141916 -0.0418098 0.0171131 0 0 0 0.00014363 -0.000117975 -3.07903e-05 -6.87315e-05 0.000105175 0.000116966 0.00680824 -0.00620421 0.0107419 0.004 510.816 12.2927 
142 1 1 0.00615899 -0.0401388 0.0154213 0 0 0 0.000105891 -6.55109e-05 -5.72923e-06 -6.51528e-05 6.21622e-05 7.11227e-05 -0.00328837 -0.00241111 -0.010413 0.004 676.288 -18.3389 
172 1 1 0.0116016 -0.0446445 0.0189548 0 0 0 3.86911e-05 -7.62224e-05 1.70063e-06 6.07433e-07 4.66282e-05 4.35191e-05 0.00242536 -0.00160062 -0.00423115 0.004 757.753 -18.8849 
109 1 1 0.0204199 -0.0412796 0.0183141 0 0 0 2.82808e-05 -5.83955e-05 -3.59248e-06 -5.31236e-06 1.90072e-05 4.93582e-05 -0.0137696 0.00591146 0.0017521 0.004 795.962 -3.53994 
150 1 1 -0.0273267 -0.0370837 0.0158759 0 0 0 0.000333932 -0.000223894 -0.000137001 -0.000235979 0.000311261 -3.91586e-05 0.0193179 0.03274 -0.0390905 0.004 300.535 0.684181 
38 1 1 -0.0197787 -0.037372 0.0182827 0 0 0 0.000350659 -0.000174163 -9.10425e-05 6.50202e-05 -7.21454e-05 4.23036e-05 -0.00851274 -0.027516 0.0320099 0.004 303.914 3.60437 
199 1 1 -0.0118541 -0.0370266 0.0176502 0 0 0 0.000268682 -0.000148686 -2.76394e-05 1.01856e-05 3.76297e-05 0.000217306 -0.00543871 0.00598953 -0.0160113 0.004 316.533 10.4343 
93 1 1 0.0137646 -0.0377759 0.0156807 0 0 0 7.84607e-05 -0.00011943 2.4185e-06 -4.11147e-05 9.98519e-05 7.30701e-05 -0.00263191 0.00480934 -0.00593926 0.004 774.023 -12.9185 
64 1 1 0.0280177 -0.0365091 0.0179285 0 0 0 8.88612e-05 -1.6039e-05 -3.31876e-06 2.18673e-05 -4.54922e-05 3.07562e-05 -0.00649596 0.0125558 -0.0206877 0.004 799.722 -0.382289 
22 1 1 -0.032739 -0.0324236 0.0194561 0 0 0 0.000501944 -0.000168595 -0.000569652 -0.00062818 0.000677053 -1.02811e-05 -0.0397704 0.168529 -0.12856 0.004 300.106 0.162675 
174 1 1 -0.0224313 -0.0302105 0.0162609 0 0 0 0.000555336 -0.000218899 -8.89125e-05 0.000354951 -0.000293869 0.000383983 -0.00649795 0.0252009 -0.0615782 0.004 301.689 1.84711 
32 1 1 -0.00428321 -0.0343968 0.0166779 0 0 0 0.000258185 -0.000121343 2.52485e-05 -8.29896e-05 0.000121002 5.58319e-05 0.0124455 -0.000332314 -0.0255063 0.004 423.005 25.1833 
128 1 1 0.00347485 -0.0331322 0.0179962 0 0 0 0.000205194 -9.79738e-05 3.80038e-05 -0.000150886 8.60624e-05 -4.96319e-05 0.0149963 0.0047892 -0.00257604 0.004 606.962 -12.9236 
88 1 1 0.0113692 -0.0304832 0.0177099 0 0 0 0.000182492 -0.000185784 4.80506e-05 -0.000148299 6.57685e-05 0.000109881 0.015572 0.0059752 -0.0084395 0.004 768.906 -14.6791 
137 1 1 0.0208049 -0.0338185 0.0156334 0 0 0 8.39118e-05 -0.000128651 -2.25635e-05 -2.4982e-05 2.65359e-05 3.53976e-05 0.00688923 -0.00801919 -0.0151506 0.004 798.723 -1.52899 
154 1 1 0.0339822 -0.0311386 0.0180551 0 0 0 4.11099e-05 -3.31103e-05 1.46715e-05 -1.90754e-05 -3.83979e-05 4.53036e-06 -0.00557464 -4.16775e-05 0.00831413 0.004 799.932 -0.108241 
52 1 1 -0.0319884 -0.0252364 0.0161613 0 0 0 0.000888375 -0.000381838 -0.000957063 -0.00129114 -8.16336e-05 0.000345318 -0.106237 -0.159904 -0.141556 0.004 300.149 0.214102 
80 1 1 -0.00960068 -0.0265067 0.017581 0 0 0 0.000423015 -0.000107216 0.000130136 0.000170937 5.04167e-05 4.43963e-06 0.015896 0.018194 -0.00346906 0.004 344.961 18.169 
125 1 1 -0.00117328 -0.0267003 0.0173744 0 0 0 0.000260097 -9.10691e-05 9.7975e-05 -5.77472e-05 0.00013379 3.98756e-05 0.0151346 -0.0160098 -0.0174872 0.004 474.914 24.9849 
72 1 1 0.0179277 -0.0264315 0.0156369 0 0 0 0.000205971 -0.000188966 7.39724e-06 8.42938e-06 3.60232e-05 2.98724e-05 0.00148952 0.0108951 -0.00391397 0.004 794.821 -4.45173 
34 1 1 0.026965 -0.0287248 0.0154182 0 0 0 7.54844e-05 -0.000110712 -1.71905e-05 -3.94796e-05 -9.46414e-05 3.61546e-06 -0.00136869 -0.00257334 -0.00464024 0.004 799.497 -0.623654 
218 1 1 -0.0395954 -0.0234711 0.017687 0 0 0 0.000108721 7.45629e-05 -0.00014342 -0.000286559 0.00425468 0.00482018 0.404377 0.126351 0.278662 0.004 300.011 0.0206797 
70 1 1 -0.0247164 -0.0230254 0.0185757 0 0 0 0.000496223 -0.000358059 -0.000214076 1.28763e-05 -0.000691728 0.000345828 -0.0295754 -0.152256 0.0682157 0.004 301.399 1.44487 
132 1 1 -0.0171313 -0.0242631 0.0164739 0 0 0 0.000582098 -0.000217057 2.09181e-05 -8.21738e-05 -0.000277773 2.96819e-05 -0.0116031 -0.0642697 0.0346987 0.004 307.89 5.72242 
196 1 1 0.00716707 -0.0237889 0.0170602 0 0 0 0.000234295 -0.000168589 0.000112055 -0.000183677 5.35031e-05 9.34316e-05 -0.00146575 0.00923028 -0.0129373 0.004 730.023 -20.5184 
362 1 1 0.024388 -0.0214288 0.0170616 0 0 0 0.000185185 -0.000195323 3.22624e-05 -0.000158291 -0.000118795 7.0109e-05 0.0134804 0.0250985 -0.0049306 0.004 799.54 -0.574072 
49 1 1 0.0387629 -0.0248026 0.0179814 0 0 0 3.21415e-05 -1.87174e-05 1.48824e-05 -3.80339e-05 -7.95389e-06 1.30559e-05 -0.00286751 0.000391344 -0.00233216 0.004 799.992 -0.0155157 
173 1 1 -0.043118 -0.0163209 0.0176969 0 0 0 0.000108226 0.000893287 0.00155466 0.00154385 0.000689775 0.00332916 -0.0254219 0.238583 0.0700631 0.004 300.007 0.0128506 
50 1 1 -0.0295067 -0.0167663 0.0182804 0 0 0 -0.000196212 -0.00116587 -0.0008473 0.000912784 -0.00138865 9.91303e-05 -0.15226 0.0249141 0.0907459 0.004 300.354 0.451527 
202 1 1 -0.0134608 -0.0172164 0.0161111 0 0 0 0.000343253 -0.000175179 -9.69548e-06 -2.45066e-05 6.88814e-05 -8.83356e-05 0.013177 -0.0344577 0.000387457 0.004 323.956 13.0429 
86 1 1 -0.00524806 -0.0199159 0.018376 0 0 0 0.000262451 -8.85053e-05 0.00019435 9.52855e-05 3.56597e-05 -7.46767e-05 0.00268208 0.0522495 0.0220235 0.004 422.606 20.8652 
129 1 1 0.0138603 -0.0196293 0.0162859 0 0 0 0.000234741 -0.000235269 7.56091e-05 -0.000131938 -1.41227e-05 0.000102265 0.0201198 0.0128467 -0.00635289 0.004 781.497 -10.1397 
82 1 1 0.0291407 -0.0151355 0.0159323 0 0 0 0.000106361 -0.000150938 5.0734e-05 -0.000179869 -0.00010149 1.49285e-05 0.00513165 0.000902626 0.0141465 0.004 799.899 -0.158822 
1 1 1 0.0424685 -0.0178048 0.0178802 0 0 0 2.795e-05 -1.89616e-05 7.24647e-06 -7.39051e-05 1.1442e-05 3.62873e-06 0.000420166 0.00155978 0.00442347 0.004 799.998 -0.00415994 
168 1 1 -0.0224796 -0.013631 0.0164159 0 0 0 -2.95743e-05 -0.000539226 -0.000445131 -0.000343594 -0.000377317 -0.000203182 -2.16694e-05 -0.166129 0.0692505 0.004 302.455 2.38541 
121 1 1 -0.00514837 -0.0120187 0.0174568 0 0 0 7.31194e-05 -9.77209e-05 0.000134189 -0.000143409 3.90485e-05 -0.000170092 0.00324471 -0.00149414 0.00398489 0.004 468.7 8.74825 
28 1 1 0.00814373 -0.0139812 0.0183176 0 0 0 0.000160091 -0.000300649 9.54154e-05 -0.000216656 8.27062e-05 0.000129356 -0.00621336 0.0224066 -0.0135945 0.004 759.815 -18.5257 
42 1 1 0.0200416 -0.01481 0.0172658 0 0 0 0.000229754 -0.000279868 8.73935e-05 -0.0002357 -8.30856e-05 0.000113682 0.00289433 0.0101905 0.00838278 0.004 796.848 -2.73997 
60 1 1 0.0376284 -0.0116468 0.0161718 0 0 0 6.01111e-05 -9.73045e-05 3.0529e-05 -6.90501e-05 -3.20776e-05 -1.82308e-05 0.0118473 0.0150602 0.0220928 0.004 799.996 -0.00876735 
135 1 1 -0.0452093 -0.00865953 0.0176547 0 0 0 -0.000661665 0.00061652 0.00458611 -0.00133525 0.000549221 0.00710051 0.49134 -0.113987 0.387592 0.004 300.001 0.00180346 
81 1 1 -0.0376157 -0.00945144 0.0199338 0 0 0 0.000292487 -0.00168489 -0.00261026 0.00241434 0.000857181 0.00238307 0.0247998 -0.384014 0.239792 0.004 300.006 0.012422 
190 1 1 -0.0303496 -0.00906507 0.0166839 0 0 0 0.000248764 -0.000884948 -0.000761419 0.000455167 -0.000658573 -0.00131081 0.238368 -0.134682 -0.112975 0.004 300.091 0.142943 
7 1 1 -0.0204504 -0.00598472 0.0162532 0 0 0 -0.000204706 -0.000405778 -0.000301379 -0.000580222 6.9192e-05 -0.00014545 0.00174372 -0.0473767 0.0132843 0.004 303.649 3.17462 