ITEM: TIMESTEP
4000
ITEM: NUMBER OF ATOMS
890
ITEM: BOX BOUNDS mm mm mm
-0.05 0.05
-0.05 0.05
0 0.15
ITEM: ATOMS id type type x y z ix iy iz vx vy vz fx fy fz omegax omegay omegaz radius f_Temp[0] f_heatFlux[0] 
59 1 1 -0.00334846 -0.0459974 0.00386942 0 0 0 0.078215 -0.0305027 0.00598717 0.00927217 -0.0186617 0.107701 1.05017 1.9363 8.6552 0.004 300 0 
170 1 1 -0.0187012 -0.0421019 0.00397922 0 0 0 -0.00286525 0.0161718 -0.0544774 0.0267807 0.0668951 -0.108802 -2.59861 -5.90604 -7.97789 0.004 300 0 
15 1 1 -0.0112005 -0.0446745 0.00397659 0 0 0 0.0317243 -0.203057 -0.0948718 0.0584683 0.203839 0.0230235 -3.39315 2.601 26.8394 0.004 300 0 
116 1 1 0.0040766 -0.0429838 0.0039501 0 0 0 0.143766 -0.0450571 0.0471707 -0.0193781 -0.051135 -0.105156 4.40558 4.95734 16.1563 0.004 300 0 
158 1 1 0.0136047 -0.0441547 0.00383733 0 0 0 -0.210146 -0.0519099 -0.0718286 -0.218188 0.0151767 0.147036 -8.56685 11.5475 -3.87277 0.004 300 0 
98 1 1 0.0210186 -0.0410455 0.00399286 0 0 0 -0.0926264 -0.0320373 -0.0146675 -0.0217839 0.104528 -0.0192367 -11.5328 5.54914 11.3153 0.004 300 0 
169 1 1 -0.0257631 -0.0383698 0.00381495 0 0 0 -0.123807 0.027914 -0.0271016 0.116938 0.190023 0.211969 5.79078 -8.46519 9.09962 0.004 300 0 
23 1 1 0.0145875 -0.0364612 0.00377017 0 0 0 -0.0594658 -0.0603654 -0.0457782 -0.0387645 0.00423532 0.133538 8.12901 -18.4447 9.99355 0.004 300 0 
118 1 1 -0.0330243 -0.0321187 0.00395293 0 0 0 0.0275703 -0.0505718 -0.00489485 -0.047702 -0.0142805 -0.00282534 -1.94824 -3.4414 -10.499 0.004 300 0 
30 1 1 -0.0191883 -0.0340723 0.00391056 0 0 0 -0.128104 0.0862364 0.0776347 0.166573 0.0828464 0.0056845 5.91429 -2.15888 6.35147 0.004 300 0 
215 1 1 -0.00558608 -0.0304379 0.00372206 0 0 0 -0.0290413 -0.0366604 0.066472 -0.0923614 0.0233713 0.0443033 5.6665 -3.61045 -9.07509 0.004 300 0 
74 1 1 0.00456497 -0.0334981 0.00390924 0 0 0 -0.287828 0.153834 0.0657185 -0.0827246 0.0672697 0.0412792 2.53785 -21.0215 -12.3902 0.004 300 0 
12 1 1 -0.0250286 -0.0253483 0.00379958 0 0 0 -0.0597276 -0.139973 0.0224081 -0.00592805 -0.0342247 0.00481652 0.193194 -6.8533 3.57393 0.004 300 0 
188 1 1 -0.0134286 -0.0283788 0.00379242 0 0 0 -0.100726 0.0524819 0.0127272 0.0900021 0.0377695 0.0775871 -2.53219 -3.40746 -8.22575 0.004 300 0 
77 1 1 -0.000218674 -0.0245865 0.0037563 0 0 0 0.0118132 -0.0565312 0.0130488 -0.0443484 -0.0464032 0.106167 7.70493 0.0079861 16.1229 0.004 300 0 
24 1 1 0.0116088 -0.0292975 0.00391699 0 0 0 -0.0626045 -0.0702775 -0.00368229 -0.0564623 0.0986378 -0.00929162 24.5124 2.02838 -5.50653 0.004 300 0 
113 1 1 0.0194907 -0.030091 0.00381328 0 0 0 -0.0454362 0.0727579 -0.0385417 -0.016566 0.0406583 0.147685 -3.60885 -15.3391 3.18061 0.004 300 0 
161 1 1 0.0332493 -0.0319551 0.00382914 0 0 0 0.0337319 0.0757145 -0.174841 0.040228 0.177853 -0.25648 3.5245 -1.50711 -1.49399 0.004 300 0 
183 1 1 0.0381727 -0.0257999 0.00397139 0 0 0 0.0685963 0.0310763 0.011854 0.11153 0.0865409 -0.135138 5.80699 -6.82014 7.05228 0.004 300 0 
8 1 1 -0.0327495 -0.0242073 0.00379141 0 0 0 -0.0313411 -0.00678275 -0.0115025 -0.155081 0.0475914 0.108501 -2.17072 1.19004 -1.78081 0.004 300 0 
148 1 1 -0.0180983 -0.0218143 0.00368406 0 0 0 -0.0437381 0.0083748 0.0628029 0.293607 -0.0580214 0.268149 -4.29493 -10.3941 26.3015 0.004 300 0 
195 1 1 -0.00850876 -0.0220952 0.00374139 0 0 0 -0.0282111 0.0695643 0.0561789 0.143143 -0.032871 0.17813 -1.39141 -13.904 4.93615 0.004 300 0 
95 1 1 0.0171674 -0.0220772 0.00375511 0 0 0 -0.0936311 0.0317779 -0.0683575 0.0466895 -0.148874 -0.100837 6.27904 -8.59079 5.00392 0.004 300 0 
76 1 1 0.024759 -0.0241835 0.00381258 0 0 0 -0.0825815 0.116333 -0.00471449 0.0408497 -0.0607914 -0.0936348 -1.623 -5.96039 12.4223 0.004 300 0 
53 1 1 -0.0288591 -0.0172523 0.00391448 0 0 0 -0.0389681 -0.00450767 0.0291979 0.00724625 -0.139081 0.0837469 4.68976 8.41977 -21.7279 0.004 300 0 
213 1 1 -0.0131138 -0.0156442 0.00385087 0 0 0 -0.097314 0.0303467 0.0497831 0.133098 -0.0244264 0.435982 -3.58215 -0.763823 -21.559 0.004 300 0 
144 1 1 -0.00500328 -0.0149052 0.0038079 0 0 0 -0.00595587 0.0713549 0.0294933 -0.08183 -0.0312152 -0.0443409 -17.5276 1.29626 5.64478 0.004 300 0 
5 1 1 0.00960903 -0.0145471 0.00369358 0 0 0 0.00185789 -0.123824 0.00418226 0.0532105 -0.0278935 0.117696 10.027 4.77464 -9.81692 0.004 300 0 
96 1 1 0.0224135 -0.0161281 0.00392445 0 0 0 0.0281198 -0.210835 -0.0155689 0.102549 0.0770954 0.0769017 12.0935 3.7347 -2.98845 0.004 300 0 
100 1 1 0.0345724 -0.0187543 0.00397711 0 0 0 -0.0571546 -0.0583931 0.0223986 0.0512228 -0.0925089 -0.00335226 -3.41936 -10.9333 5.44398 0.004 300 0 
167 1 1 0.0424983 -0.0176089 0.00402345 0 0 0 -0.0717671 -0.230404 0.0178563 -0.0685197 -0.22068 -0.100803 5.91945 0.172468 -7.94974 0.004 300 0 
65 1 1 -0.0440232 -0.0138406 0.00383661 0 0 0 -0.00838376 -0.0807723 -0.090109 0.0115037 0.0438905 0.244287 0.747528 -6.38911 4.10119 0.004 300 0 
102 1 1 -0.036247 -0.0145639 0.00390574 0 0 0 -0.0288893 0.084529 0.0064607 -0.0435929 -0.108087 -0.0786055 -3.32619 -5.34131 12.4859 0.004 300 0 
124 1 1 -0.0303667 -0.00933565 0.00387968 0 0 0 -0.0317569 -0.0516058 0.00254687 -0.226123 -0.121669 -0.113811 -1.50583 -0.244755 -30.2474 0.004 300 0 
220 1 1 -0.0215391 -0.0144038 0.00383175 0 0 0 0.0389394 -0.0503701 -0.0163332 0.053456 0.0160403 0.203272 4.63537 -3.99733 6.12031 0.004 300 0 
26 1 1 0.00351765 -0.00961077 0.00378446 0 0 0 0.0678883 -0.0594318 0.0115584 -0.163806 0.0504794 0.0935397 2.25345 -3.81298 -6.07778 0.004 300 0 
194 1 1 0.0295489 -0.0126731 0.00376501 0 0 0 -0.0380335 -0.0689323 -0.00773054 -0.309413 0.448691 0.345824 6.28306 -4.77809 4.66629 0.004 300 0 
37 1 1 0.0372367 -0.0112815 0.00392253 0 0 0 -0.0590581 0.00661832 -0.0209885 0.0635825 -0.0662927 0.00300633 2.89078 -1.45263 -11.8448 0.004 300 0 
636 1 1 -0.045687 -0.00615036 0.00378941 0 0 0 -0.00969557 -0.0439336 -0.146107 0.0280438 0.140932 0.0533898 0.798259 6.45538 -4.58682 0.004 300 0 
39 1 1 -0.0163771 -0.00845741 0.00384623 0 0 0 0.0448604 0.0531946 -0.00223798 0.0882439 0.00890833 -0.0479284 -1.08998 -11.2978 14.6745 0.004 300 0 
171 1 1 -0.00296953 -0.00516836 0.00378722 0 0 0 -0.0205057 -0.0751538 -0.0392285 -0.258253 0.0367972 0.0904953 -1.63054 1.67303 -1.3875 0.004 300 0 
200 1 1 0.0158242 -0.00990804 0.00371411 0 0 0 -0.0530962 -0.0213604 0.0292625 -0.0436202 0.167539 0.396952 17.954 -11.9218 -0.18033 0.004 300 0 
21 1 1 0.0233308 -0.00783471 0.00377478 0 0 0 -0.034093 -0.0226566 -0.0572058 0.0605736 0.25907 0.187356 12.3559 -2.44598 -3.8562 0.004 300 0 
219 1 1 0.0449888 -0.0101482 0.00389571 0 0 0 -0.0367677 -0.241586 0.00914883 0.0885881 0.0883471 0.00494064 6.66825 0.326303 5.4044 0.004 300 0 
140 1 1 -0.0362856 -0.00410409 0.00389709 0 0 0 0.0642492 0.0258345 0.00581032 -0.0207424 -0.0240707 0.111537 -3.57041 -2.23643 5.12658 0.004 300 0 
207 1 1 -0.0196189 -0.0012608 0.00371487 0 0 0 -0.040279 -0.0317424 0.0224641 -0.0546149 -0.134871 -0.201821 -3.29488 1.69864 4.75966 0.004 300 0 
69 1 1 -0.0098063 -0.00114997 0.00395606 0 0 0 0.0112284 0.128734 0.0169032 -0.0974962 -0.0663994 -0.149029 -7.2426 4.32714 -8.26361 0.004 300 0 
221 1 1 0.00904548 -0.00333027 0.00392182 0 0 0 0.0171877 -0.108512 0.026873 -0.0566319 -0.0898364 -0.0641665 0.808845 9.90334 -4.8081 0.004 300 0 
457 1 1 0.0174837 -0.00205433 0.00386273 0 0 0 0.0243865 -0.0861347 0.0380024 -0.19454 -0.138971 0.0519135 16.644 17.6571 11.7044 0.004 300 0 
17 1 1 0.0305989 -0.00475334 0.00383195 0 0 0 -0.0368318 -0.0554046 -0.0430328 0.0189364 0.140216 0.276576 -3.27915 3.9737 10.3428 0.004 300 0 
155 1 1 0.0381338 -0.00232414 0.00396247 0 0 0 -0.03879 0.0153338 -0.0821353 -0.0448101 0.137951 -0.105068 0.254116 -2.78809 -7.65452 0.004 300 0 
665 1 1 0.046046 -0.00242605 0.00384745 0 0 0 -0.0229248 -0.205392 0.0522296 -0.0738278 0.0929019 0.152162 -6.40851 9.05271 -18.6809 0.004 300 0 
223 1 1 0.0087136 -0.0453706 0.00993755 0 0 0 0.064223 -0.0225438 0.0806686 0.0435601 0.0166045 -0.191175 -12.4302 0.630237 1.99031 0.004 300 0 
152 1 1 -0.00485677 -0.0383052 0.00390608 0 0 0 -0.0884752 -0.070806 -0.1217 0.19435 0.143532 0.164938 -4.02815 -6.87106 5.77211 0.004 300 0 
120 1 1 0.00886518 -0.0375945 0.00912333 0 0 0 -0.115811 -0.00883471 -0.137644 0.0783944 0.0388591 0.109668 -1.55101 37.0306 6.93826 0.004 300 0 
9 1 1 -0.0262752 -0.0317946 0.00806272 0 0 0 -0.0605162 -0.0781184 0.160148 -0.090342 -0.0949338 0.139141 2.72975 7.5071 -2.767 0.004 300 0 
47 1 1 -0.0003918 -0.0303721 0.0095328 0 0 0 0.0285403 -0.108443 -0.0326013 -0.0146786 0.0886495 0.204807 0.749588 -6.16249 9.68119 0.004 300 0 
198 1 1 0.0258847 -0.034806 0.00443243 0 0 0 -0.0854604 0.0725477 -0.203241 0.0054827 0.0165649 0.00511659 -23.7117 -20.6578 -10.488 0.004 300 0 
101 1 1 -0.0194413 -0.02784 0.00879419 0 0 0 -0.0787438 0.062479 0.00159772 -0.261409 0.252038 -0.0842809 -4.10102 22.5336 16.6501 0.004 300 0 
162 1 1 -0.0405412 -0.0215132 0.00427461 0 0 0 -0.00145158 0.0500448 0.0598891 0 0 -0.0210391 -13.1188 0.0163009 10.0244 0.004 300 0 
179 1 1 0.00837975 -0.0222272 0.00426571 0 0 0 -0.153686 -0.115453 0.0597756 -0.103482 -0.00905012 -0.0928496 -17.274 6.05132 6.72596 0.004 300 0 
75 1 1 0.0312852 -0.0254167 0.00787111 0 0 0 -0.0200432 0.0656964 -0.100433 0.0204131 -0.14362 -0.075891 4.39045 11.8953 7.63138 0.004 300 0 
104 1 1 -0.0199724 -0.0184087 0.0103876 0 0 0 -0.0477283 -0.00233089 0.0664238 0.0368596 0.203377 0.0597007 0.923003 13.0219 -5.31362 0.004 300 0 
10 1 1 0.00236212 -0.0172102 0.00548471 0 0 0 -0.0642576 -0.0143009 -0.0781405 -0.0678988 -0.0219097 -0.0627377 15.0931 8.06248 -18.1768 0.004 300 0 
54 1 1 0.0160287 -0.016049 0.00859347 0 0 0 -0.0101336 -0.0297299 -0.0247968 -0.148506 -0.0650989 -0.175192 -11.2982 -6.58481 -8.31131 0.004 300 0 
11 1 1 0.0284969 -0.0182143 0.00911414 0 0 0 -0.220403 -0.0320448 -0.0100886 0.217399 0.0285083 0.178024 -7.08975 9.65008 -5.63441 0.004 300 0 
62 1 1 -0.0234828 -0.00737319 0.00692736 0 0 0 -0.055548 -0.119016 -0.0931662 -0.21243 0.0838386 -0.354331 1.81305 8.31647 5.76517 0.004 300 0 
19 1 1 -0.00943408 -0.00906667 0.00741575 0 0 0 -0.00642303 0.0359525 0.0751307 0.257944 0.00997797 0.0918804 7.03836 6.3994 -6.32801 0.004 300 0 
187 1 1 0.00913721 -0.00910126 0.00925409 0 0 0 0.0132156 -0.116814 0.0646791 -0.0403644 -0.108233 -0.0314322 4.04681 -8.29286 -6.32482 0.004 300 0 
119 1 1 -0.0285023 -0.0016588 0.00399165 0 0 0 0.166272 -0.150855 0.00443597 0.110411 0.110067 -0.0199336 -6.85573 -0.410436 -19.0255 0.004 300 0 
146 1 1 -0.0149542 -0.0032556 0.00961221 0 0 0 0.0909166 0.0527334 0.0212167 0.154689 0.0205021 -0.140933 16.5295 -0.115085 -10.7824 0.004 300 0 
83 1 1 0.000819057 -0.0460512 0.010575 0 0 0 0.00449954 0.0236412 0.0369135 0.183369 -0.0500066 -0.0510986 2.2092 -13.2228 0.23679 0.004 300 0 
185 1 1 -0.00718824 -0.0454632 0.0107989 0 0 0 0.0453249 -0.0118189 -0.00445594 0.0317633 0.0301879 -0.0344936 -11.1966 9.33343 4.86258 0.004 300 0 
217 1 1 0.0165794 -0.0429794 0.0109938 0 0 0 0.270515 0.160137 -0.207478 0.106767 -0.231273 0.0172251 -23.8499 0.0485349 -6.28491 0.004 300 0 
117 1 1 0.0235295 -0.0392069 0.0114481 0 0 0 0.138968 0.151153 -0.0849844 0.110182 0.0504607 -0.0717627 -4.66324 9.72862 -5.85379 0.004 300 0 
58 1 1 -0.0214649 -0.0383397 0.0103608 0 0 0 -0.0996908 -0.270784 0.0518036 -0.0139371 -0.106095 0.227895 24.8557 23.7752 -21.113 0.004 300 0 
89 1 1 -0.0120751 -0.0365067 0.00640905 0 0 0 -0.132378 -0.0595584 -0.0444353 -0.231346 0.0433779 0.0643181 -17.9469 11.339 -1.64976 0.004 300 0 
151 1 1 -0.00653835 -0.0370045 0.012128 0 0 0 -0.270225 -0.351041 -0.161636 0.224788 0.0324593 -0.233827 -9.68553 10.4493 -1.02444 0.004 300 0 
2 1 1 0.000903061 -0.038127 0.00934231 0 0 0 -0.107549 -0.142139 0.0262886 -0.0443602 -0.103687 -0.0709399 -5.81628 -11.8788 18.7816 0.004 300 0 
13 1 1 -0.0327275 -0.0324356 0.0126563 0 0 0 -0.186872 0.0368622 -0.0200284 0.171307 0.101173 0.0545545 -10.3876 16.5561 -10.3607 0.004 300 0 
6 1 1 -0.0158377 -0.0334778 0.0129287 0 0 0 -0.285299 -0.116914 -0.36131 -0.126643 -0.00534257 -0.0944755 2.89934 5.84901 3.9654 0.004 300 0 
153 1 1 0.00733851 -0.0300193 0.0105185 0 0 0 0.0464613 0.067614 0.0527294 0.134136 -0.0289185 -0.0351166 9.28757 -7.48871 -2.89032 0.004 300 0 
41 1 1 0.0173681 -0.0336507 0.0104429 0 0 0 -0.159346 0.0482176 -0.083271 -0.108424 0.0532413 0.0338338 -11.634 10.717 27.369 0.004 300 0 
163 1 1 0.0311224 -0.0338148 0.0109974 0 0 0 0.138118 0.137286 -0.227396 0.0619598 0.068088 0.208093 -13.8756 13.1863 -6.09555 0.004 300 0 
214 1 1 -0.0374531 -0.0269275 0.00944158 0 0 0 -0.079347 0.123317 -0.0474136 -0.00175326 -0.0667554 0.185508 1.15985 -3.00282 -5.98394 0.004 300 0 
193 1 1 -0.00949299 -0.0298108 0.0103808 0 0 0 -0.156285 -0.106827 0.0549298 0.177822 0.0397774 0.176862 30.7156 -25.4106 -10.0307 0.004 300 0 
48 1 1 0.0243678 -0.0291865 0.00995909 0 0 0 0.0208763 -0.0364487 -0.0182164 0.0544432 -0.0291703 0.0436482 27.6069 21.7655 -3.61109 0.004 300 0 
210 1 1 0.0365492 -0.0282138 0.0128289 0 0 0 -0.000811897 0.100241 -0.0116587 -0.0402145 -0.119824 0.174417 -14.0544 -5.37395 -12.1847 0.004 300 0 
160 1 1 -0.0408961 -0.0213668 0.0139656 0 0 0 -0.0580081 0.106881 -0.0403075 -0.112267 -0.0852794 0.0932762 -3.4407 8.76903 -7.3826 0.004 300 0 
108 1 1 -0.0271023 -0.0215731 0.0103354 0 0 0 -0.0877663 -0.119272 0.0106757 0.0173948 -0.138184 0.0480369 -12.4079 -1.40675 -6.33583 0.004 300 0 
33 1 1 -0.0133988 -0.0229064 0.00975593 0 0 0 0.0239562 0.0122571 0.0760582 0.117047 -0.0752076 0.308904 19.0726 30.2163 -2.15039 0.004 300 0 
40 1 1 -0.00448666 -0.0236719 0.0102475 0 0 0 -0.0562079 -0.168484 -0.00972551 0.105129 -0.0459204 0.200053 -5.14639 12.228 -3.83585 0.004 300 0 
55 1 1 0.00349959 -0.0231771 0.0104494 0 0 0 -0.0327662 0.0620202 0.039592 0.0568709 0.0457849 0.241912 -26.2392 -14.2311 7.30003 0.004 300 0 
91 1 1 0.0143547 -0.0252669 0.0102039 0 0 0 -0.0463724 -0.00913506 -0.0724033 0.124431 -0.222043 0.00537425 3.89069 16.3758 -3.39512 0.004 300 0 
112 1 1 0.0214747 -0.0214156 0.0103598 0 0 0 -0.15168 -0.0430016 -0.0467449 -0.0196747 -0.0935662 -0.0174921 10.4143 4.39437 1.11555 0.004 300 0 
131 1 1 0.0405693 -0.0218966 0.0104422 0 0 0 0.0432055 0.0324548 0.0656497 0.0614115 0.149479 -0.0153142 3.67822 9.50325 3.90599 0.004 300 0 
46 1 1 -0.0345945 -0.019541 0.00977309 0 0 0 -0.0549151 0.0544133 -0.0284429 -0.0742779 0.131526 -0.097626 -3.85173 -11.4106 -12.4239 0.004 300 0 
20 1 1 -0.00872689 -0.0165696 0.0104598 0 0 0 0.0548524 0.0365524 0.0125046 0.037973 -0.0993755 -0.113794 13.9523 3.68643 10.9862 0.004 300 0 
159 1 1 0.00853345 -0.0170984 0.0108999 0 0 0 0.013559 0.081918 0.0427284 0.0422744 0.0279099 0.23338 12.3374 1.08805 -8.13758 0.004 300 0 
177 1 1 -0.0438395 -0.0144046 0.0116596 0 0 0 -0.0178598 0.124855 -0.0996001 -0.184346 0.0915544 0.150768 -17.1143 9.60563 9.20788 0.004 300 0 
4 1 1 -0.030775 -0.012729 0.0109862 0 0 0 -0.0931902 0.0542467 0.0922361 0.278575 -0.122877 -0.369872 2.04637 -6.10476 6.89592 0.004 300 0 
139 1 1 -0.0159976 -0.0116333 0.0111433 0 0 0 -0.113209 0.0528872 -0.116006 0.210079 0.0440764 -0.144186 -5.86512 -4.05409 0.521139 0.004 300 0 
211 1 1 -0.00190079 -0.0103745 0.00945658 0 0 0 -0.00584212 -0.00328866 0.0219716 -0.00120451 -0.230593 -0.0403091 -4.4298 -6.70848 3.36663 0.004 300 0 
84 1 1 0.0241283 -0.011296 0.0107105 0 0 0 -0.0463188 -0.0597814 -0.0525902 0.0976101 -0.211721 0.24697 -13.5666 0.942013 5.97471 0.004 300 0 
136 1 1 0.0362819 -0.0153296 0.0111006 0 0 0 -0.0400265 -0.0392035 0.108387 -0.0931898 -0.0144851 -0.0935267 -2.6918 10.3738 -1.44757 0.004 300 0 
180 1 1 0.0439974 -0.0135714 0.0109 0 0 0 -0.0235934 -0.076884 0.073793 0.0527189 0.008339 -0.0449109 -27.6307 11.8852 -8.62693 0.004 300 0 
197 1 1 -0.0451624 -0.00651643 0.0114832 0 0 0 -0.0666946 -0.0159732 -0.156928 -0.333971 -0.325795 0.202695 -0.362566 -12.451 -1.67814 0.004 300 0 
71 1 1 -0.0381069 -0.00936179 0.00960602 0 0 0 -0.191673 0.134968 -0.133116 0.534483 0.0383249 -0.136697 -3.17585 -0.980313 -1.22827 0.004 300 0 
7 1 1 -0.0207977 -0.00600289 0.0140189 0 0 0 0.0665814 -0.047488 -0.197893 -0.0700282 0.230234 0.130551 4.15177 -23.6903 2.21111 0.004 300 0 
103 1 1 0.0171485 -0.00636339 0.0104839 0 0 0 -0.0449161 -0.0763825 0.107718 0.0152069 0.0544329 0.0464229 5.70958 15.6432 17.8289 0.004 300 0 
156 1 1 0.0316883 -0.00895409 0.010416 0 0 0 0.00500001 -0.0496931 -0.0245243 -0.0816371 -0.0718037 0.176795 -8.39516 9.59125 -9.68012 0.004 300 0 
157 1 1 0.0393522 -0.00699193 0.0101974 0 0 0 0.052471 0.023418 -0.120377 -0.0367095 -0.0469203 0.00627664 -1.84502 9.99704 19.3097 0.004 300 0 
63 1 1 0.0460046 -0.00322017 0.0119147 0 0 0 0.0177332 0.0339218 -0.0248553 0.105934 0.111815 -0.0222412 -6.81761 -3.57055 -5.40993 0.004 300 0 
87 1 1 -0.0384762 -0.00409395 0.0157279 0 0 0 0.0965885 0.0311107 0.119543 0.018493 -0.0628721 -0.128548 -4.34986 -2.66075 7.67391 0.004 300 0 
130 1 1 -0.0322084 -0.00408386 0.0107035 0 0 0 -0.0128671 -0.0377933 -0.0159663 -0.200165 0.2732 -0.423043 18.2259 -8.85031 -2.301 0.004 300 0 
57 1 1 -0.0056149 -0.00292453 0.010922 0 0 0 0.0604166 -0.0084829 -0.043612 -0.0652145 0.0569701 -0.0251045 -11.5939 2.54407 -14.3846 0.004 300 0 
18 1 1 0.00286636 -0.00381329 0.00900712 0 0 0 -0.0399517 -0.0743465 -0.0556163 0.129647 0.266847 -0.317044 -6.53022 -7.46271 -2.45766 0.004 300 0 
31 1 1 0.0252676 -0.0035026 0.0100237 0 0 0 0.018414 -0.023972 -0.0384372 0.039691 -0.0138593 0.093697 -5.45294 1.29786 2.80853 0.004 300 0 
588 1 1 0.0327403 -0.00116623 0.0105515 0 0 0 0.00686325 -0.00288497 -0.0240162 -0.0566638 -0.0116817 -0.0238336 17.5266 -15.8863 14.1962 0.004 300 0 
105 1 1 -0.0154923 -0.043136 0.012976 0 0 0 0.334815 -0.0701271 -0.51588 0 0 -0.0210391 -25.743 6.63928 -10.796 0.004 300 0 
107 1 1 -0.0096 -0.0450902 0.0183426 0 0 0 0.0824465 -0.0864644 -0.0383784 0.127183 -0.0346735 -0.0721028 12.5334 -21.2719 -11.7919 0.004 300 0 
222 1 1 -0.00253802 -0.0422217 0.0165909 0 0 0 0.090109 -0.124349 0.0653865 0.116722 -0.34502 -0.313955 -20.1532 14.233 18.293 0.004 300 0 
142 1 1 0.00513259 -0.0409968 0.0153305 0 0 0 0.0675909 -0.0190565 0.0292267 -0.207561 0.0912395 0.0247069 7.49918 13.3294 22.0987 0.004 300 0 
150 1 1 -0.0272085 -0.0372932 0.0157214 0 0 0 -0.0409807 0.0895805 0.0726023 -0.120445 -0.163742 0.0968351 -7.42902 -17.4492 14.4532 0.004 300 0 
199 1 1 -0.0114011 -0.0369022 0.0183123 0 0 0 -0.150211 0.117944 -0.159761 0.000382816 -0.124402 0.236878 -13.0634 -2.79517 32.0365 0.004 300 0 
93 1 1 0.0130642 -0.0379891 0.0158845 0 0 0 0.0679202 -0.0459918 -0.188792 -0.0986197 0.0493476 0.192041 32.2976 5.23175 18.7162 0.004 300 0 
174 1 1 -0.0229531 -0.030824 0.0151288 0 0 0 0.0418109 0.020585 0.143684 -0.155321 0.00705418 0.12228 -0.0788953 -0.091893 -15.3996 0.004 300 0 
64 1 1 0.0279125 -0.036481 0.0174804 0 0 0 0.197082 0.0447928 -0.00981443 -0.0704111 -0.655854 0.279353 1.09592 20.8633 15.3449 0.004 300 0 
80 1 1 -0.0116005 -0.0257695 0.0168022 0 0 0 0.0605335 -0.061304 0.0838204 0.0369656 -0.267842 0.138152 -38.4434 -18.3313 -46.2697 0.004 300 0 
125 1 1 -0.00440049 -0.0295659 0.0162792 0 0 0 -0.0429737 0.0724404 0.0610119 0.233475 0.0143038 0.51335 -21.5777 20.2846 35.6474 0.004 300 0 
88 1 1 0.0128294 -0.0301924 0.0160772 0 0 0 -0.00863537 -0.0169423 0.0953612 0.0107632 0.0190501 0.241006 20.3912 17.2186 8.05479 0.004 300 0 
52 1 1 -0.0332653 -0.0250825 0.0159578 0 0 0 0.239257 -0.110884 -0.0955642 0.0107467 0.00579098 -0.0028146 10.0416 16.6082 6.6636 0.004 300 0 
70 1 1 -0.0262176 -0.0214454 0.0181137 0 0 0 0.0184469 0.0713874 -0.0102517 -0.238433 -0.178382 -0.00622645 -21.0505 3.14536 8.28644 0.004 300 0 
132 1 1 -0.0191917 -0.0240547 0.0157796 0 0 0 -0.00458644 0.0561001 -0.00438195 0.184529 0.0241003 0.192532 -12.4247 10.3797 6.40367 0.004 300 0 
129 1 1 0.00983253 -0.0228262 0.0160441 0 0 0 0.00819311 0.0248652 -0.0160857 -0.108992 0.0234315 0.508931 -11.6622 1.31666 0.179443 0.004 300 0 
178 1 1 0.0320449 -0.0220506 0.0151677 0 0 0 -0.0946571 0.177121 0.0261392 0.084608 -0.239612 -0.0501331 2.71453 0.0905457 4.35568 0.004 300 0 
168 1 1 -0.0238468 -0.0132282 0.0148557 0 0 0 0.0498834 0.00551931 0.0442774 -0.0549957 -0.215757 0.133713 -6.4348 5.07955 0.716729 0.004 300 0 
202 1 1 -0.0143208 -0.017891 0.0157654 0 0 0 0.0593849 0.0437316 -0.052482 -0.328233 0.0252956 0.127341 -14.3227 17.033 -5.80401 0.004 300 0 
45 1 1 0.00121089 -0.0162865 0.0136467 0 0 0 -0.00253379 0.07445 -0.07472 -0.361378 -0.103601 0.204249 3.59276 -0.286188 -4.42145 0.004 300 0 
1 1 1 0.0431587 -0.0164662 0.0181663 0 0 0 0.00110857 0.035313 0.0637927 -0.166141 0.203945 0.0637666 9.91286 9.98372 -5.31623 0.004 300 0 
43 1 1 -0.0369779 -0.0146284 0.0154114 0 0 0 -0.0470119 0.063324 -0.108267 -0.144049 -0.0993201 0.0498199 27.9534 -10.5719 4.58529 0.004 300 0 
121 1 1 -0.00566011 -0.0120751 0.0161193 0 0 0 0.0696714 -0.0713774 0.054769 -0.148423 0.15877 0.215623 9.96754 15.4722 18.8546 0.004 300 0 
42 1 1 0.0207117 -0.0159851 0.0160043 0 0 0 -0.114314 0.0859905 -0.0844111 -0.170105 -0.0409724 0.130292 -7.51646 3.00615 -13.655 0.004 300 0 
82 1 1 0.0299479 -0.0144546 0.0158824 0 0 0 0.232145 0.0220356 -0.0815449 -0.153224 0.132643 -0.0942074 1.18034 11.3813 -11.3395 0.004 300 0 
135 1 1 -0.0439651 -0.00878619 0.0189211 0 0 0 -0.125186 -0.116137 -0.0903284 -0.32543 0.0646564 -0.27581 -1.79685 4.68368 4.27328 0.004 300 0 
145 1 1 -0.0114148 -0.00678688 0.0155675 0 0 0 -0.0132244 -0.148296 0.0848248 0.0440249 -0.0785412 0.131293 14.824 -15.7998 4.69387 0.004 300 0 
186 1 1 0.00216115 -0.00791425 0.015663 0 0 0 -0.0668653 0.0162665 -0.0479355 -0.0446012 -0.111243 -0.00141481 -2.42988 18.552 -2.53751 0.004 300 0 
56 1 1 0.0137928 -0.0120283 0.0148218 0 0 0 -0.0738885 -0.241811 0.0307603 -0.10778 -0.0319183 0.0401146 29.2635 20.0916 -15.9256 0.004 300 0 
191 1 1 0.0214407 -0.00464297 0.0167269 0 0 0 0.108358 -0.0626337 -0.0054687 0.137489 -0.242669 0.149055 -7.6371 24.511 -4.16499 0.004 300 0 
60 1 1 0.0370894 -0.0100931 0.0170409 0 0 0 0.0761438 0.0209721 -0.0420665 -0.0816888 -0.250928 0.0535992 -8.86266 2.91666 -20.2065 0.004 300 0 
92 1 1 0.0450817 -0.00874261 0.0175374 0 0 0 0.16352 0.105656 0.104205 -0.017004 -0.0764766 0.0413781 5.22434 2.00025 15.2139 0.004 300 0 
192 1 1 -0.0461372 -0.00119766 0.0170717 0 0 0 -0.332429 -0.0873799 -0.400924 0.417913 0.289989 0.324775 -28.9639 -13.068 0.895231 0.004 300 0 
106 1 1 0.00888917 -0.00389642 0.0150168 0 0 0 -0.0321921 -0.0651844 0.0484309 -0.0271368 0.0934225 -0.0696092 -12.9406 -8.42063 9.46891 0.004 300 0 
208 1 1 0.029871 -0.00479727 0.0170246 0 0 0 0.0992718 -0.0232537 -0.176134 0.508832 -0.322788 -0.777054 5.60987 -3.19398 8.14559 0.004 300 0 
133 1 1 0.039651 -0.00272638 0.0177306 0 0 0 0.132392 0.0899581 -0.0524605 0.353766 -0.182902 -0.0970878 6.88039 -19.2896 37.0752 0.004 300 0 
172 1 1 0.0108381 -0.0449172 0.0188814 0 0 0 -0.0150555 -0.0220211 -0.13087 0.278469 0.0194024 0.244518 -34.3737 -36.5574 -0.0610673 0.004 300 0 
127 1 1 -0.0036893 -0.0460288 0.0239606 0 0 0 0.24147 -0.00617504 -0.0392834 -0.194439 -0.171002 -0.772154 -2.38351 -4.56389 -14.0626 0.004 300 0 
109 1 1 0.0194643 -0.0417284 0.0188367 0 0 0 0.170803 0.053227 -0.206047 0.022892 -0.0476578 -0.436097 -5.39657 -15.3007 -10.6545 0.004 300 0 
114 1 1 0.010238 -0.0384717 0.0233777 0 0 0 -0.196805 -0.0109301 -0.226535 0.194904 -0.431377 0.0623686 18.787 -11.5257 -15.485 0.004 300 0 
38 1 1 -0.0197852 -0.0371731 0.018634 0 0 0 0.0804641 -0.173882 -0.151311 -0.25435 0.197937 -0.20554 21.2573 6.35908 5.59513 0.004 300 0 
85 1 1 -0.0168598 -0.030016 0.020977 0 0 0 -0.603453 0.341893 -0.0957833 -0.057213 0.274358 -0.366568 0.820001 -9.56709 10.4433 0.004 300 0 
32 1 1 -0.00314537 -0.0358567 0.0209937 0 0 0 0.197691 -0.147956 -0.102526 -0.340901 0.654922 0.403255 22.9357 0.309519 17.1831 0.004 300 0 
128 1 1 0.00300788 -0.0335641 0.0164429 0 0 0 -0.284844 -0.0294662 -0.0208314 -0.0306705 0.419908 -0.0041671 -16.2125 9.8093 5.38971 0.004 300 0 
137 1 1 0.0198858 -0.0339056 0.017708 0 0 0 0.252279 0.044174 -0.233204 0.167459 0.0085038 0.33123 3.80873 14.929 4.08378 0.004 300 0 
154 1 1 0.0344534 -0.0306893 0.0199675 0 0 0 0.278645 0.152076 0.170887 -0.209292 -0.1601 -0.0775676 -5.49257 8.43475 -8.55583 0.004 300 0 
22 1 1 -0.0349761 -0.0300153 0.0224889 0 0 0 -0.0527331 0.0984566 -0.0728437 0.0295546 0.103416 0.0105896 13.002 -6.62564 6.71381 0.004 300 0 
196 1 1 0.0027083 -0.0257458 0.0177747 0 0 0 -0.0637197 0.1245 0.065123 0.0259915 -0.37206 0.115403 3.92498 16.9016 -10.2941 0.004 300 0 
34 1 1 0.0271935 -0.0287015 0.0173256 0 0 0 0.259042 -0.168147 0.00162823 0.000888982 0.456482 -0.046573 -17.745 0.998677 37.7859 0.004 300 0 
49 1 1 0.0395385 -0.0236164 0.0186201 0 0 0 -0.0193086 0.0362472 -0.0238292 0.0946529 -0.249772 -0.0888931 0.194498 -6.60998 0.520335 0.004 300 0 
218 1 1 -0.0396083 -0.0234872 0.0214253 0 0 0 0.0683802 0.0819163 -0.0343591 0.0202738 -0.138633 0.107924 3.45656 -10.593 -18.0307 0.004 300 0 
204 1 1 -0.015779 -0.021995 0.0226275 0 0 0 0.225278 -0.0304618 0.035487 -0.00312628 0.0245977 0.0381084 -4.62901 19.4737 1.3403 0.004 300 0 
86 1 1 -0.0053147 -0.0198759 0.0169656 0 0 0 0.234078 -0.10269 -0.00481946 0.067646 0.126922 0.239134 -1.31852 -1.44265 -3.36923 0.004 300 0 
72 1 1 0.0192993 -0.0257251 0.0164614 0 0 0 0.00290886 -0.195526 -0.112295 0.0902284 -0.158383 0.366944 7.71141 6.02646 -10.2981 0.004 300 0 
3 1 1 0.0326698 -0.0237509 0.0231272 0 0 0 -0.0491289 0.116563 0.10936 -0.144918 0.241309 -0.0344089 2.57325 -0.76795 4.31617 0.004 300 0 
173 1 1 -0.0430274 -0.0164588 0.0201394 0 0 0 -0.0144276 -0.0120098 -0.246144 -0.455838 -0.335504 -0.193146 -7.73818 22.275 7.08336 0.004 300 0 
16 1 1 0.0142004 -0.0179148 0.0205224 0 0 0 0.272299 0.0469932 -0.0335228 0.128918 0.0922766 -0.0787868 -31.456 -13.9071 -0.168908 0.004 300 0 
97 1 1 0.0357435 -0.0170067 0.0205358 0 0 0 -0.00580558 -0.0805791 -0.109024 -0.241367 -0.122385 -0.508926 -5.63672 12.7082 -2.39213 0.004 300 0 
50 1 1 -0.0306256 -0.0152518 0.0199454 0 0 0 -0.0739615 0.109928 -0.0739446 0.0451706 0.11617 0.154577 -8.9839 -8.72868 22.3329 0.004 300 0 
29 1 1 -0.01726 -0.0109084 0.0189156 0 0 0 -0.309692 0.141876 -0.128081 0.467474 -0.284126 0.489767 -16.3021 -29.3549 1.26379 0.004 300 0 
68 1 1 0.000230461 -0.0132025 0.0211592 0 0 0 0.0221195 -0.00393603 -0.0663695 -0.158194 -0.347945 -0.414229 -10.1621 -4.35091 2.22593 0.004 300 0 
28 1 1 0.00736064 -0.0147913 0.0183713 0 0 0 -0.0354006 -0.132555 0.152368 -0.0538278 -0.0104334 0.025323 -22.7553 9.50989 0.0141731 0.004 300 0 
44 1 1 0.0251492 -0.0103327 0.0204849 0 0 0 0.259844 -0.0849582 0.0895787 0.230633 -0.10929 -0.259702 -4.1742 -10.674 6.42817 0.004 300 0 
81 1 1 -0.0365703 -0.00960232 0.0213968 0 0 0 -0.0887514 -0.136381 -0.0890859 0.389665 0.299487 0.178075 -7.38665 29.2673 17.9468 0.004 300 0 
190 1 1 -0.0291473 -0.00773787 0.0168415 0 0 0 -0.11998 -0.301206 -0.0470796 0.406185 -0.146276 0.391434 -3.34387 -8.30123 15.1387 0.004 300 0 
66 1 1 -0.0142604 -0.00432234 0.0225546 0 0 0 -0.290017 0.0052034 -0.0329346 -0.023981 0.0188019 0.0469585 -4.36068 7.72572 -7.57677 0.004 300 0 
206 1 1 -0.0227051 -0.00432366 0.0212876 0 0 0 0.0964379 -0.112092 -0.0701555 0.355845 -0.0275212 0.297468 7.45777 30.8026 15.1417 0.004 300 0 
111 1 1 -0.00440722 -0.00464278 0.0185609 0 0 0 0.00791679 0.00453566 0.0524589 -0.0182457 -0.111661 0.0457951 -3.45113 -1.95697 15.5712 0.004 300 0 
78 1 1 0.00704448 -0.00760542 0.0217403 0 0 0 -0.0344522 0.136964 -0.120736 0.173831 -0.0865993 0.310366 -5.62873 -10.002 7.57531 0.004 300 0 
164 1 1 0.04607 -0.00171221 0.0221824 0 0 0 -0.00269917 0.132189 0.183088 0.232827 -0.165338 -0.450278 12.2248 16.7778 -12.3838 0.004 300 0 
110 1 1 -0.0291185 -0.0358164 0.0235752 0 0 0 0.00862252 0.0577791 0.0777712 -0.131302 0.134336 -0.0785825 29.9301 -1.87164 -0.307718 0.004 300 0 
126 1 1 -0.0162054 -0.0432688 0.0220113 0 0 0 -0.00897047 -0.0771177 -0.130865 0.0244981 0.340839 0.334972 -20.3336 -13.9895 12.4687 0.004 300 0 
143 1 1 0.00240505 -0.0411727 0.0228043 0 0 0 0.150869 0.00554305 0.0608108 0.370812 0.0113287 0.0143974 -2.2911 10.0027 32.8093 0.004 300 0 
216 1 1 0.00549294 -0.0322919 0.0242165 0 0 0 0.14651 -0.0383709 -0.163864 -0.478721 0.261943 -0.0274879 21.8477 4.82525 -0.270944 0.004 300 0 
149 1 1 0.0133248 -0.0312524 0.0238347 0 0 0 0.0926355 -0.155731 0.175239 0.0470646 0.103411 0.217657 9.99132 -0.617922 -5.92032 0.004 300 0 
35 1 1 0.0246981 -0.0389703 0.0241184 0 0 0 -0.130207 0.0875061 0.038732 0.163866 -0.545971 0.28764 -10.2404 -56.634 -19.6151 0.004 300 0 
134 1 1 -0.0273062 -0.0285262 0.0212587 0 0 0 0.0234809 0.156241 0.13592 -0.346616 0.190009 -0.156679 -7.37883 11.6259 -5.65094 0.004 300 0 
36 1 1 -0.00798485 -0.0235712 0.0233334 0 0 0 0.070616 -0.0826296 0.0923026 0.249446 0.00251746 0.389869 0.246533 4.26442 -15.6579 0.004 300 0 
182 1 1 -0.00159962 -0.0285856 0.0237334 0 0 0 -0.0688405 0.00774089 0.128164 -0.0846537 -0.114211 0.0554331 8.56529 -7.32265 13.7313 0.004 300 0 
166 1 1 0.0288356 -0.0310477 0.025458 0 0 0 0.237142 -0.0636996 0.19904 0.0848102 0.0533377 0.167992 5.69139 -23.844 -1.22673 0.004 300 0 
51 1 1 -0.0320751 -0.0224518 0.0237906 0 0 0 -0.0546659 0.140483 -0.185368 0.27581 -0.455117 -0.288245 -21.2476 -13.0525 21.4987 0.004 300 0 
122 1 1 -0.0180952 -0.0175249 0.0288235 0 0 0 0.145155 -0.116418 0.0312338 -0.14238 -0.295544 -0.187051 12.6761 6.78036 18.4011 0.004 300 0 
138 1 1 0.000265508 -0.0208868 0.023478 0 0 0 0.243214 -0.044668 -0.00349729 -0.096978 0.32224 0.21324 -2.25252 -0.988779 -7.43703 0.004 300 0 
25 1 1 0.00852748 -0.0248893 0.023532 0 0 0 0.0360331 -0.12245 0.0754167 0.00704635 -0.179711 0.0992432 22.7201 7.15613 12.6794 0.004 300 0 
209 1 1 0.0171393 -0.0243511 0.0239376 0 0 0 -0.0805648 -0.0753517 -0.035051 0.0157807 -0.502497 -0.528511 -17.1986 8.98738 -9.60008 0.004 300 0 
14 1 1 -0.0221762 -0.0160962 0.022117 0 0 0 0.0843752 -0.081233 0.088513 -0.114036 -0.292843 0.0443718 -13.232 13.5146 8.84767 0.004 300 0 
147 1 1 -0.0100245 -0.0157195 0.0217945 0 0 0 0.120384 -0.0802687 -0.142985 -0.0428328 -0.0591272 -0.133393 -11.5824 -17.5397 -2.87453 0.004 300 0 