ITEM: TIMESTEP
20000
ITEM: NUMBER OF ATOMS
890
ITEM: BOX BOUNDS mm mm mm
-0.05 0.05
-0.05 0.05
0 0.15
ITEM: ATOMS id type type x y z ix iy iz vx vy vz fx fy fz omegax omegay omegaz radius f_Temp[0] f_heatFlux[0] 
59 1 1 -0.000715561 -0.0460982 0.00395599 0 0 0 3.39021e-05 1.78861e-05 -5.22819e-06 -1.54131e-05 1.50684e-05 -3.18741e-05 -0.000554165 0.00818297 -0.00334928 0.004 300 0 
170 1 1 -0.0173498 -0.0426414 0.00397305 0 0 0 2.04429e-05 -2.47351e-06 -1.59048e-05 -1.63667e-05 3.42173e-05 -3.66904e-05 0.00434182 0.00389436 -0.00110857 0.004 300 0 
15 1 1 -0.00975021 -0.0449638 0.00393398 0 0 0 3.71343e-05 -2.49331e-05 -6.08266e-05 -1.43931e-06 7.23854e-06 -9.28526e-06 0.00283524 0.0119281 -0.00483955 0.004 300 0 
116 1 1 0.00648762 -0.0428196 0.00395871 0 0 0 2.17508e-05 5.17804e-05 -4.62495e-05 1.86609e-05 -7.7537e-05 -2.81666e-05 -0.0183872 0.000166058 0.00316333 0.004 300 0 
158 1 1 0.0143627 -0.0437625 0.00389978 0 0 0 1.02574e-05 1.76565e-05 -1.20563e-05 6.46595e-06 -4.59566e-05 -6.84079e-06 0.000368064 -0.00129133 -0.0054313 0.004 300 0 
98 1 1 0.021678 -0.0406526 0.0039426 0 0 0 2.34357e-05 1.42389e-05 -5.18069e-06 -1.53973e-05 -2.13717e-05 4.32126e-06 -0.00269886 0.00201091 -0.00283963 0.004 300 0 
169 1 1 -0.0244317 -0.0390658 0.00391431 0 0 0 1.26348e-06 1.16852e-05 -2.40548e-05 -8.81259e-06 -4.74265e-06 -1.4815e-05 -0.00414776 -0.00414537 -0.00281341 0.004 300 0 
89 1 1 -0.011812 -0.0369236 0.00395472 0 0 0 3.90055e-05 5.12288e-05 -6.31425e-05 -1.66289e-06 8.04958e-05 -8.14976e-05 -0.0139266 0.00920141 0.00183067 0.004 300 0 
152 1 1 -0.00418335 -0.0390221 0.00390536 0 0 0 5.0526e-05 5.02665e-05 -4.16511e-05 -4.05818e-05 1.37164e-05 -4.82905e-05 -0.0112971 0.00181156 0.00104236 0.004 300 0 
23 1 1 0.0153483 -0.0358819 0.0039113 0 0 0 4.65719e-05 4.13919e-05 -3.16208e-05 -3.76963e-05 -6.52082e-05 -4.46983e-06 -0.00674286 0.00157852 -0.00672434 0.004 300 0 
118 1 1 -0.0307534 -0.0342396 0.00392722 0 0 0 7.73256e-06 6.0101e-06 -1.3267e-05 -7.60073e-06 1.55471e-05 -6.39145e-06 0.00146672 0.00505416 0.00255263 0.004 300 0 
30 1 1 -0.0188788 -0.0333716 0.00395288 0 0 0 2.10355e-05 4.22062e-05 -5.00453e-05 5.99285e-06 3.6832e-05 -6.03964e-05 -0.00748805 0.00591361 0.00457333 0.004 300 0 
215 1 1 -0.00603682 -0.0313237 0.00390658 0 0 0 3.89404e-05 2.81629e-05 -3.52235e-05 -2.40629e-05 5.5989e-05 -2.4761e-05 0.000273836 0.00632343 0.000997661 0.004 300 0 
74 1 1 0.00184145 -0.0338192 0.00390687 0 0 0 7.60843e-05 6.55192e-05 -7.94572e-05 -5.09551e-05 3.58125e-06 -2.1298e-05 -0.00599411 0.0123993 -0.00500425 0.004 300 0 
24 1 1 0.00917855 -0.030834 0.00392037 0 0 0 4.40208e-05 5.03977e-05 -6.96288e-05 -3.57358e-05 -6.83627e-05 3.71311e-07 -0.00680334 -0.00717282 0.000305151 0.004 300 0 
198 1 1 0.0259423 -0.0339523 0.00395556 0 0 0 1.22916e-05 4.95593e-05 -2.16611e-05 1.215e-05 -7.88507e-05 -5.61301e-05 -0.0132866 -0.00933264 0.00881181 0.004 300 0 
161 1 1 0.0335301 -0.0316074 0.00391358 0 0 0 2.2364e-05 2.66089e-05 1.56079e-05 -1.91524e-06 -5.96861e-05 -3.63798e-05 -0.00387811 0.00537905 -0.0132903 0.004 300 0 
8 1 1 -0.0322714 -0.0264164 0.00398408 0 0 0 4.35279e-06 1.49127e-05 -2.53671e-06 -6.3927e-05 -7.4662e-05 -6.56096e-05 -0.00145365 -1.66606e-05 -0.00152563 0.004 300 0 
12 1 1 -0.0244158 -0.0276964 0.00386378 0 0 0 1.48187e-05 3.03285e-05 -3.0377e-05 -6.62348e-05 -4.88085e-05 -2.81095e-05 -0.00554321 0.00510697 0.000590345 0.004 300 0 
188 1 1 -0.0131752 -0.027776 0.00396612 0 0 0 1.88494e-05 5.54301e-05 -4.15535e-05 -5.45735e-05 3.81575e-05 -2.72425e-05 -0.00995589 -0.0034275 -0.00468069 0.004 300 0 
77 1 1 -0.000100421 -0.0260808 0.00389426 0 0 0 -8.59886e-06 9.08712e-05 -5.33412e-05 -1.83111e-05 -1.30215e-06 -6.8879e-06 -0.0103924 -0.00151338 0.0233905 0.004 300 0 
113 1 1 0.0165643 -0.0280202 0.00388654 0 0 0 2.15071e-05 6.84044e-05 -6.62885e-06 -4.3163e-05 -8.12792e-05 1.87676e-06 -0.00389882 -0.0022045 0.0172427 0.004 300 0 
183 1 1 0.0384541 -0.0253742 0.00393846 0 0 0 9.39611e-07 -5.31735e-06 1.41747e-05 -1.97618e-05 -2.59988e-05 -1.4718e-05 0.00488737 0.000825124 0.00445224 0.004 300 0 
162 1 1 -0.0396317 -0.0234166 0.00390905 0 0 0 -1.47731e-05 -1.08865e-05 -1.74548e-05 -1.68805e-06 -1.35789e-05 -5.11504e-06 0.00281913 -0.00233439 0.00624635 0.004 300 0 
53 1 1 -0.0272089 -0.0202483 0.00395263 0 0 0 -6.2741e-06 5.54542e-06 -4.26326e-06 -7.70919e-05 -7.09e-05 -5.00415e-06 0.00303472 0.00514141 0.011128 0.004 300 0 
148 1 1 -0.0187599 -0.0220644 0.00393797 0 0 0 6.72958e-06 5.60142e-05 -5.02893e-05 -0.000160051 -6.33117e-05 -1.2043e-05 -0.00601548 -0.00203326 0.00616196 0.004 300 0 
195 1 1 -0.00727841 -0.0215501 0.00394565 0 0 0 -4.52882e-05 5.87309e-05 -1.02122e-05 -0.000161448 1.93784e-05 3.75592e-05 -0.00813743 -0.00468483 -0.0419073 0.004 300 0 
179 1 1 0.00736627 -0.023103 0.00394275 0 0 0 -1.7018e-05 2.74058e-05 -3.61272e-05 -7.44011e-05 -8.68341e-05 -2.05631e-06 0.00537701 0.00126395 0.0119776 0.004 300 0 
95 1 1 0.0148505 -0.0203099 0.00393206 0 0 0 -4.3058e-05 4.89327e-05 -3.08277e-05 -0.000154195 -6.05281e-05 -1.40451e-06 -0.0125856 0.00111623 -0.000279637 0.004 300 0 
76 1 1 0.0230028 -0.0233055 0.00397477 0 0 0 -2.11472e-05 5.44244e-06 3.80983e-05 -9.01296e-05 -0.000179263 -2.45652e-05 -0.00176127 -0.0116135 -0.025216 0.004 300 0 
100 1 1 0.0325586 -0.0200895 0.00388595 0 0 0 -1.18347e-05 1.14963e-05 4.9278e-05 -5.12659e-05 -9.07657e-05 -7.30354e-05 -0.0018086 0.00362549 -0.00155105 0.004 300 0 
65 1 1 -0.0430758 -0.0162784 0.0039339 0 0 0 -2.77919e-05 -1.91177e-05 -2.45214e-05 -5.07521e-06 2.13453e-05 -9.76907e-06 0.00184102 -0.00519985 -0.00639442 0.004 300 0 
102 1 1 -0.0351607 -0.0155069 0.00394467 0 0 0 -2.66982e-05 -5.15868e-05 -3.93692e-05 1.00462e-05 -2.25572e-05 -3.43395e-05 0.0139646 0.00179366 0.00857192 0.004 300 0 
213 1 1 -0.0132596 -0.0162742 0.00397359 0 0 0 9.05923e-06 8.34218e-05 -9.36178e-06 -0.000199605 -6.3099e-05 5.38019e-05 -0.00403329 0.0041288 0.0168003 0.004 300 0 
10 1 1 0.00114853 -0.0182523 0.00475002 0 0 0 -1.43298e-06 8.51057e-05 -4.6229e-06 -6.27163e-05 -0.000109152 -4.3445e-05 0.00325147 -0.00332026 -0.0209295 0.004 300 0 
5 1 1 0.00879787 -0.0152553 0.00390325 0 0 0 -2.68672e-05 4.46091e-05 -1.43913e-05 -8.03341e-05 -6.86336e-05 6.18527e-05 -0.00119619 -0.00152413 -0.00706914 0.004 300 0 
96 1 1 0.0211693 -0.0155241 0.00395647 0 0 0 -3.95759e-05 -2.72522e-05 8.10669e-06 -0.000124742 -6.57106e-05 -9.23085e-05 0.0112894 -0.0134508 -0.000512934 0.004 300 0 
167 1 1 0.0421924 -0.0183683 0.00392111 0 0 0 -2.51376e-05 4.57524e-06 7.82781e-06 2.3211e-05 -3.49005e-05 1.13633e-06 -0.00452584 -0.00360455 0.00228839 0.004 300 0 
124 1 1 -0.0290075 -0.0104706 0.00394645 0 0 0 -8.12741e-05 -1.3652e-05 2.82118e-05 0.000147404 -7.83329e-05 -5.97749e-05 -0.00382763 -0.0179227 0.00173488 0.004 300 0 
220 1 1 -0.0217765 -0.0144549 0.00398111 0 0 0 -5.2714e-05 1.67007e-05 6.45364e-06 -3.30591e-05 -3.44105e-05 0.000105032 -0.00254329 -0.0113716 -0.00166674 0.004 300 0 
144 1 1 -0.00535514 -0.0138038 0.00388165 0 0 0 4.50511e-05 5.90108e-05 -3.31716e-06 -3.35918e-05 -2.50679e-05 2.6655e-05 -0.00726484 0.00943564 0.0145689 0.004 300 0 
26 1 1 0.00255572 -0.0104629 0.00390569 0 0 0 1.528e-05 7.04634e-05 -3.25463e-05 -6.06595e-05 -8.41696e-05 4.43718e-06 -0.0162354 0.00563636 0.00498194 0.004 300 0 
194 1 1 0.0287353 -0.0131029 0.00393082 0 0 0 -2.82059e-05 -2.06907e-05 5.79645e-05 -6.94433e-05 -9.55416e-05 -8.45193e-05 0.0002607 -0.00270003 0.00214931 0.004 300 0 
37 1 1 0.0366701 -0.0122307 0.003933 0 0 0 -2.85369e-05 -1.36634e-05 5.5136e-05 -8.53143e-05 -1.99622e-05 -8.65219e-06 -0.00639583 -0.00243354 -0.0054657 0.004 300 0 
219 1 1 0.0447285 -0.0108715 0.00390889 0 0 0 -2.45247e-05 -1.35183e-05 -1.99185e-05 -4.46354e-06 -1.88192e-05 -1.42759e-05 -0.00612055 -0.00755535 -0.00360673 0.004 300 0 
636 1 1 -0.0451997 -0.00864082 0.00392108 0 0 0 -7.90989e-05 -5.21469e-06 -1.99118e-05 -5.11097e-06 -2.15207e-05 -2.08242e-05 0.00266827 -0.0108924 0.021583 0.004 300 0 
39 1 1 -0.0161467 -0.00885129 0.0038894 0 0 0 -3.82762e-05 7.02429e-06 1.33356e-05 3.17558e-06 -1.44274e-06 5.8336e-05 -0.00275867 -0.003155 -0.000934829 0.004 300 0 
171 1 1 -0.00395987 -0.00597826 0.00392026 0 0 0 -7.02582e-06 4.66225e-05 -1.6892e-05 -1.69013e-05 -4.99056e-05 2.81194e-05 -0.00226814 0.00356856 0.0026257 0.004 300 0 
200 1 1 0.0146297 -0.00986509 0.00396382 0 0 0 -4.43317e-05 1.04183e-05 1.6637e-05 -6.92032e-05 -5.10837e-05 3.93178e-05 -0.00243624 -0.00406373 -0.00398065 0.004 300 0 
21 1 1 0.022252 -0.00762145 0.00394339 0 0 0 -5.40297e-05 -4.95399e-05 3.03222e-05 -4.69028e-05 -5.72643e-05 -6.58802e-05 0.00237304 -0.00741252 -0.00468963 0.004 300 0 
17 1 1 0.0298456 -0.00520695 0.00394876 0 0 0 -9.74636e-05 -2.38687e-05 7.85187e-05 1.78201e-05 -0.00016272 -2.54154e-05 0.00469637 -0.0187715 0.0189052 0.004 300 0 
477 1 1 -0.0445896 -0.000710126 0.0039645 0 0 0 -6.60772e-05 -2.14404e-05 6.21087e-06 7.17336e-05 -1.32862e-05 -2.76325e-05 0.00507304 -0.0169398 -0.0401983 0.004 300 0 
140 1 1 -0.0352686 -0.00371644 0.00387176 0 0 0 -4.14627e-05 -3.71163e-05 -1.49801e-05 4.4562e-05 -5.1739e-06 -2.53719e-06 0.0077577 -0.00272498 0.00779725 0.004 300 0 
119 1 1 -0.0273897 -0.00269716 0.0039633 0 0 0 -6.48279e-05 -2.06077e-05 9.01194e-06 2.04883e-05 2.68836e-05 1.03147e-05 -0.00700443 -0.000588776 -0.00944435 0.004 300 0 
207 1 1 -0.0194909 -0.00168714 0.00389437 0 0 0 -9.17991e-05 -4.57897e-05 9.39049e-07 2.77156e-05 1.92054e-05 4.50382e-05 0.00915261 -0.0181061 0.0108029 0.004 300 0 
69 1 1 -0.0111571 -0.00264547 0.00392978 0 0 0 -3.84594e-05 -6.60181e-06 6.19723e-06 4.33912e-05 -4.8489e-05 1.14212e-05 0.0020379 -0.00581988 0.0036776 0.004 300 0 
221 1 1 0.0087481 -0.00448964 0.00393204 0 0 0 -1.79484e-05 8.37112e-05 -4.89987e-05 -8.37854e-05 -0.000106184 -4.98777e-05 -0.0293146 -0.00205509 -0.0175372 0.004 300 0 
457 1 1 0.0163506 -0.00208045 0.00395932 0 0 0 -6.20631e-05 5.02537e-06 -2.77707e-06 -6.56015e-05 -4.93698e-05 1.81692e-05 0.00298668 -0.0105401 0.0123208 0.004 300 0 
155 1 1 0.0378912 -0.00224675 0.00393694 0 0 0 -9.50609e-05 -3.36652e-05 4.14579e-05 8.37566e-05 -5.16555e-05 4.21425e-06 0.00863696 -0.0222579 0.036593 0.004 300 0 
665 1 1 0.0459183 -0.00307623 0.00394259 0 0 0 -2.73173e-05 -5.29171e-05 -7.03796e-06 -2.11592e-05 -4.86989e-05 4.792e-05 0.0156803 -0.00689859 0.00701885 0.004 300 0 
120 1 1 0.00918491 -0.0371089 0.00876938 0 0 0 4.49544e-05 6.63259e-05 -9.6352e-05 -8.57195e-05 -9.90162e-05 -3.58373e-05 0.00850292 0.0019103 -0.000236419 0.004 300 0 
9 1 1 -0.0247149 -0.033359 0.00937618 0 0 0 2.37544e-05 2.78326e-05 -3.84476e-05 4.39589e-06 8.06447e-06 -1.12821e-05 0.0045548 0.00320111 -0.00267424 0.004 300 0 
101 1 1 -0.0188639 -0.0277189 0.0095515 0 0 0 5.10514e-05 6.06015e-05 -8.11748e-05 -5.98424e-05 -2.45292e-05 -3.65727e-05 0.00468896 0.00828413 0.00244113 0.004 300 0 
48 1 1 0.0221998 -0.0293136 0.00920037 0 0 0 7.70762e-05 4.03557e-06 -1.17151e-05 1.9338e-05 -0.00018779 -2.95247e-05 0.0331618 0.0108077 -0.0208623 0.004 300 0 
75 1 1 0.02936 -0.0261744 0.00787427 0 0 0 6.25844e-05 8.57481e-06 4.76345e-05 -1.35843e-05 -0.000165613 -9.85559e-05 0.00433768 0.00780003 0.0198407 0.004 300 0 
46 1 1 -0.0327975 -0.0205742 0.00958388 0 0 0 -2.36765e-05 -5.78609e-05 -5.83627e-05 -0.000114094 1.56108e-05 -2.12358e-05 -0.00590068 -0.0247064 0.0116704 0.004 300 0 
33 1 1 -0.0130353 -0.0220252 0.00949567 0 0 0 -3.30161e-05 6.84383e-05 -4.4434e-05 -0.000246574 -6.03648e-05 4.99496e-05 0.0139576 -0.0186837 -0.00406167 0.004 300 0 
11 1 1 0.0268901 -0.0187445 0.00924463 0 0 0 -4.45505e-05 -5.14105e-05 0.000100776 -6.02765e-05 -0.000193581 -0.000119375 0.0129379 -0.00997549 0.0102356 0.004 300 0 
71 1 1 -0.0372786 -0.00953921 0.00877239 0 0 0 -0.000110209 -7.87517e-05 -6.0348e-05 4.79363e-05 -9.35873e-06 2.40003e-05 0.00335877 -0.0253812 -0.000610459 0.004 300 0 
62 1 1 -0.0228072 -0.00771178 0.00813924 0 0 0 -0.000106181 -3.98942e-05 4.97736e-05 1.00542e-05 -1.02856e-05 0.000102903 0.00896831 -0.00246056 0.00868352 0.004 300 0 
19 1 1 -0.00970693 -0.00905638 0.00849032 0 0 0 2.50794e-05 3.89694e-05 6.666e-06 1.07257e-05 -6.54691e-05 5.0613e-05 -0.00408012 0.00757497 0.0137379 0.004 300 0 
187 1 1 0.00796687 -0.00988178 0.00975757 0 0 0 -5.67309e-05 8.37595e-05 2.95949e-05 6.20223e-05 0.000126449 -3.83603e-05 0.0196937 -0.00926091 0.00825911 0.004 300 0 
157 1 1 0.0395817 -0.00751942 0.009631 0 0 0 -8.55089e-05 -5.20459e-05 8.55559e-05 3.59415e-05 -2.6326e-05 6.18858e-05 0.00896343 -0.0121371 0.00328039 0.004 300 0 
18 1 1 0.00229127 -0.00404889 0.00852642 0 0 0 2.50523e-05 0.000105375 -4.6201e-05 -4.65142e-06 -0.00020331 9.44793e-06 0.0177814 0.0194699 0.0123272 0.004 300 0 
185 1 1 -0.0053113 -0.045735 0.0104437 0 0 0 -1.04882e-05 8.07265e-06 -6.6351e-05 -4.32827e-05 -2.88981e-06 -1.81805e-05 -0.0126911 -0.0298167 0.00641271 0.004 300 0 
83 1 1 0.00256754 -0.0459473 0.0112659 0 0 0 -8.24979e-06 4.06375e-05 2.1978e-05 -4.95552e-05 -3.86177e-05 -7.71207e-05 -0.00206479 0.00748959 -0.000754163 0.004 300 0 
58 1 1 -0.0218568 -0.0405819 0.0112772 0 0 0 1.82946e-05 3.17251e-05 -0.00010404 5.04924e-05 -1.56198e-05 -0.000137317 -0.0100686 0.0271019 0.00359699 0.004 300 0 
105 1 1 -0.0135858 -0.0439663 0.0108787 0 0 0 4.40004e-05 3.5026e-05 -0.000108272 -0.000164241 0.000165193 -6.39184e-05 -0.0277351 0.0087187 -0.000468988 0.004 300 0 
223 1 1 0.0103958 -0.0448673 0.0106706 0 0 0 6.7134e-06 1.81039e-05 -1.70173e-05 -4.85548e-05 -5.47952e-05 -6.97199e-05 -0.00249327 0.000680454 -0.00147382 0.004 300 0 
217 1 1 0.0179433 -0.0424253 0.0108279 0 0 0 3.3647e-05 -7.62667e-06 -4.05787e-05 -1.66265e-05 -2.54635e-05 2.49896e-05 -0.00775782 0.00224437 -0.00834269 0.004 300 0 
6 1 1 -0.0162619 -0.0350305 0.0113121 0 0 0 2.74235e-05 4.03444e-05 -0.00017195 6.12075e-05 2.37001e-05 -0.000159972 0.0173854 -0.00263506 -0.00605674 0.004 300 0 
151 1 1 -0.00801337 -0.0382604 0.0108116 0 0 0 2.93404e-05 2.76309e-05 -0.00014875 -7.45386e-05 0.000100909 -9.05314e-05 0.017051 -0.0137323 -0.0074059 0.004 300 0 
2 1 1 0.000444104 -0.038308 0.0102711 0 0 0 8.61835e-05 0.000116576 -8.62883e-05 -0.000107262 -6.52675e-06 -4.19764e-05 -0.0154447 0.00531542 -0.0231097 0.004 300 0 
117 1 1 0.0249196 -0.0387266 0.0109175 0 0 0 3.26662e-05 -2.1803e-05 -4.03777e-06 1.38565e-05 -1.19763e-05 4.0175e-05 0.0137486 -0.00103702 0.00217146 0.004 300 0 
13 1 1 -0.0323458 -0.0327545 0.0115372 0 0 0 1.42711e-05 -1.10614e-05 -1.75454e-05 -9.89436e-06 5.96817e-05 3.88122e-05 -0.000350188 -0.00116795 0.00734968 0.004 300 0 
193 1 1 -0.00982611 -0.0305005 0.0107688 0 0 0 1.35364e-05 4.10802e-05 -9.14466e-05 9.31193e-06 9.34869e-05 -2.02532e-07 -0.00813245 -0.012896 0.0104214 0.004 300 0 
47 1 1 -0.00133796 -0.0305435 0.0103848 0 0 0 4.60109e-05 7.70349e-05 -0.000162447 -0.000117437 3.60127e-05 -4.38179e-05 0.010807 -0.0192599 0.0300834 0.004 300 0 
153 1 1 0.00656441 -0.030023 0.0113663 0 0 0 1.7881e-05 9.66687e-05 -0.000152778 -0.000174839 -9.15383e-05 -1.46348e-05 0.00630819 -0.0011578 -0.00907528 0.004 300 0 
41 1 1 0.0148076 -0.0317912 0.010654 0 0 0 5.83419e-05 3.73206e-05 -6.88143e-05 -9.15954e-05 -0.000118397 -4.22152e-05 0.0103354 -0.0034283 0.00289036 0.004 300 0 
163 1 1 0.0311566 -0.0339183 0.0111113 0 0 0 4.16838e-05 -6.53657e-06 4.7264e-05 3.43711e-05 -3.58529e-05 1.22895e-05 0.0189747 0.0081601 -0.00179278 0.004 300 0 
214 1 1 -0.0375019 -0.0268253 0.0107151 0 0 0 -1.04576e-07 -2.57756e-05 -3.64625e-05 -6.0519e-05 2.99219e-05 5.14561e-05 -0.00717216 0.00837278 -0.00586457 0.004 300 0 
210 1 1 0.0364694 -0.0280971 0.0111134 0 0 0 3.26153e-05 -5.50698e-06 3.88382e-05 1.00696e-05 -4.15208e-05 -1.8789e-05 -0.00548454 0.0103416 -0.00283786 0.004 300 0 
108 1 1 -0.0260965 -0.0246376 0.0109266 0 0 0 3.08954e-05 -9.18374e-06 -4.12681e-05 -0.000119666 -9.01984e-05 2.09369e-05 0.0153329 0.0062975 0.00865756 0.004 300 0 
40 1 1 -0.00551153 -0.0238696 0.0113288 0 0 0 -4.90566e-05 5.89336e-05 -8.43848e-05 -0.000103539 5.13816e-05 4.30017e-05 0.00846399 0.00684581 -0.000938108 0.004 300 0 
55 1 1 0.00236185 -0.0232849 0.010825 0 0 0 -3.2313e-05 8.72269e-05 -3.49518e-05 -2.26686e-05 -2.65798e-05 5.02072e-05 0.0276502 -0.00186564 0.00308695 0.004 300 0 
91 1 1 0.0120915 -0.0243834 0.0101856 0 0 0 -1.7934e-05 7.00279e-05 -3.91318e-05 -3.08428e-05 -0.000105039 2.92263e-05 0.00494503 -0.00663698 0.0147559 0.004 300 0 
112 1 1 0.0192794 -0.0205359 0.010507 0 0 0 -7.69098e-05 6.99223e-06 -2.84098e-05 -1.53936e-05 -0.000197718 -0.000100079 0.0274324 -0.00539958 -0.0309729 0.004 300 0 
178 1 1 0.0318657 -0.0225253 0.0144789 0 0 0 7.28396e-05 2.37181e-05 2.92327e-05 5.71721e-05 -0.000155288 -0.000123131 0.0025295 0.00626448 0.0115967 0.004 300 0 
131 1 1 0.0407765 -0.0214683 0.0110512 0 0 0 8.50381e-06 1.27709e-07 1.81688e-05 6.06469e-06 -8.00124e-06 -3.4562e-06 0.007082 0.0104512 0.00279266 0.004 300 0 
160 1 1 -0.0414732 -0.0199366 0.0108144 0 0 0 -4.22845e-05 -3.18849e-05 -3.9788e-05 -9.48125e-06 1.39809e-05 6.21709e-06 0.000142052 0.00108398 0.0103182 0.004 300 0 
43 1 1 -0.0361115 -0.0150942 0.0142638 0 0 0 -8.47735e-05 -8.07347e-05 -0.000122288 3.14666e-05 1.07633e-05 -2.1142e-05 -0.000103204 0.0179876 0.0115456 0.004 300 0 
4 1 1 -0.0270363 -0.0151157 0.0100738 0 0 0 -7.90337e-05 -1.11237e-05 5.46987e-05 8.25571e-06 -7.12638e-05 -8.07777e-05 0.0113608 0.00704935 0.0106117 0.004 300 0 
104 1 1 -0.0203034 -0.0192302 0.0111968 0 0 0 -1.23071e-05 1.90406e-05 -5.27045e-05 -0.00014754 -0.000113977 2.87757e-05 0.0106282 0.0134838 0.00926922 0.004 300 0 
20 1 1 -0.0074553 -0.0162218 0.0110951 0 0 0 6.14443e-05 8.50458e-05 -3.01481e-05 -0.000101904 -2.11232e-05 9.2186e-06 0.00622916 -0.00681726 -0.0178657 0.004 300 0 
45 1 1 0.000824659 -0.0164512 0.0146046 0 0 0 0.00010101 9.36292e-05 5.02507e-05 -5.69658e-05 -0.000105862 8.00664e-05 -0.00829105 0.00490873 -0.00792859 0.004 300 0 
159 1 1 0.00795135 -0.0177072 0.0113473 0 0 0 -1.44011e-05 8.0824e-05 1.12153e-05 2.2025e-06 -8.41365e-05 9.72103e-05 -0.0115569 0.0111583 -0.00629997 0.004 300 0 
136 1 1 0.0347932 -0.016337 0.0104655 0 0 0 -4.02748e-05 -2.44321e-06 9.44277e-05 -7.29157e-05 -0.000112362 -9.51325e-05 0.0151334 -0.0101643 0.0093992 0.004 300 0 
177 1 1 -0.0443293 -0.0125253 0.0108182 0 0 0 -7.50724e-05 -3.48922e-05 -6.60815e-05 3.92688e-06 6.17889e-06 -2.99346e-05 -0.0021592 0.00593507 4.25187e-05 0.004 300 0 
139 1 1 -0.016822 -0.0121095 0.011043 0 0 0 -1.45765e-05 -6.07672e-06 -1.86979e-05 -8.87968e-05 -6.06728e-05 5.08561e-05 0.015093 0.0143004 -0.00189153 0.004 300 0 
211 1 1 -0.00209561 -0.0104147 0.0103074 0 0 0 0.000109347 8.45802e-05 -2.09051e-05 -2.67874e-05 -0.000143288 8.81242e-05 -0.00173042 0.014905 0.00322908 0.004 300 0 
54 1 1 0.0149154 -0.0138956 0.0108308 0 0 0 -5.57581e-05 5.9724e-05 5.36708e-05 4.62838e-05 -0.000129529 0.000112489 0.00298282 -0.018727 0.0220649 0.004 300 0 
84 1 1 0.023272 -0.0118006 0.0106602 0 0 0 -9.53983e-05 -5.13648e-05 7.64328e-05 -8.80617e-05 -0.000151986 -0.000140281 -0.0102205 0.00687984 -0.00140596 0.004 300 0 
180 1 1 0.0438204 -0.0140997 0.0110465 0 0 0 -2.68762e-05 -1.06464e-06 1.45235e-05 -3.94578e-05 -1.63483e-05 1.5936e-05 -0.000436872 0.00950764 0.0085163 0.004 300 0 
103 1 1 0.0174441 -0.00636545 0.0105707 0 0 0 -7.06027e-05 4.67115e-05 2.79783e-05 -2.95479e-05 -0.000133479 -5.79763e-07 -0.0264549 -0.00137478 -0.0166322 0.004 300 0 
156 1 1 0.0308893 -0.00946084 0.0106299 0 0 0 -0.000133366 -4.47766e-05 0.000119723 -0.000177383 -0.000235137 -4.78601e-05 0.00890285 -0.0191091 0.0153524 0.004 300 0 
197 1 1 -0.045782 -0.00470763 0.0107638 0 0 0 -0.000105228 -1.68235e-05 -1.83749e-05 2.8961e-05 -5.43969e-06 -2.40341e-05 0.0029055 0.0105942 0.00658096 0.004 300 0 
87 1 1 -0.0386044 -0.00380014 0.0141434 0 0 0 -6.03676e-06 -7.89543e-05 -1.27424e-05 1.59729e-05 -5.00819e-05 3.41449e-05 0.00222602 0.0276743 -0.060856 0.004 300 0 
130 1 1 -0.0313603 -0.00387057 0.0107765 0 0 0 -0.000164181 -8.75145e-05 8.79089e-06 5.72846e-05 -2.32058e-05 -7.38891e-05 0.0246553 -0.036787 0.0457866 0.004 300 0 
604 1 1 -0.022459 -0.000299519 0.0110774 0 0 0 -0.000179857 -0.000114769 3.39135e-05 9.52023e-05 1.61617e-05 8.01256e-05 -0.0071434 0.0186301 0.0204433 0.004 300 0 
146 1 1 -0.0155081 -0.00400722 0.0103903 0 0 0 -7.283e-05 -2.06469e-05 6.70329e-06 0.000100162 6.32293e-06 3.69448e-05 -0.00853664 0.00170069 0.00691355 0.004 300 0 
57 1 1 -0.00517513 -0.00310604 0.0111948 0 0 0 3.96322e-05 4.49099e-05 -1.82121e-05 0.0001599 -0.000101349 0.000100147 0.00665902 0.00848332 0.00512461 0.004 300 0 
493 1 1 0.0116958 -0.000874679 0.0103666 0 0 0 -1.69119e-05 4.13105e-05 -5.91239e-05 3.97895e-06 -0.000212286 0.000124498 0.0533464 0.00178057 0.0367085 0.004 300 0 
31 1 1 0.0250483 -0.0040539 0.0104602 0 0 0 -0.0001177 -3.84929e-05 7.60378e-05 -3.84856e-05 -0.00010948 -0.00016621 0.00327449 -0.00934844 0.000961154 0.004 300 0 
588 1 1 0.0325998 -0.00174486 0.0105431 0 0 0 -0.000143859 -8.19594e-05 0.00014829 3.17891e-06 -0.000297361 6.92568e-06 0.00752779 -0.000802742 -0.018899 0.004 300 0 
63 1 1 0.045924 -0.0032788 0.0119252 0 0 0 -6.33146e-05 -3.38719e-05 1.80806e-05 5.0089e-07 -1.7427e-05 6.85803e-05 -0.0477775 0.00374504 0.00490642 0.004 300 0 
107 1 1 -0.0085055 -0.0452732 0.017677 0 0 0 3.90342e-05 -6.88498e-06 -7.26373e-05 -2.92273e-05 -6.74993e-06 -4.17392e-05 0.000849881 0.046291 0.000541983 0.004 300 0 
222 1 1 -0.00141908 -0.0418095 0.0171135 0 0 0 3.49124e-05 8.32118e-05 -0.00013883 -9.61939e-05 -8.91202e-06 -4.03829e-05 0.0251021 -0.0112118 0.0185134 0.004 300 0 
142 1 1 0.00615909 -0.0401389 0.0154212 0 0 0 5.34722e-05 7.88425e-05 -0.000102534 -8.673e-05 -8.968e-05 -7.68872e-05 -0.0141747 -0.00313036 -0.0158514 0.004 300 0 
172 1 1 0.0116019 -0.0446444 0.0189548 0 0 0 5.80694e-05 1.49942e-05 -6.77222e-05 -2.06635e-05 -7.94613e-05 -6.24458e-05 -0.0133342 0.0299845 -0.0140619 0.004 300 0 
109 1 1 0.0204199 -0.0412796 0.0183139 0 0 0 5.62086e-07 -2.59666e-05 -3.98957e-05 7.8396e-05 1.54917e-05 -2.92577e-05 0.0148858 -0.0177929 0.0126716 0.004 300 0 
150 1 1 -0.0273276 -0.0370829 0.0158762 0 0 0 5.95971e-05 5.67845e-06 -2.65403e-05 4.28104e-05 6.47039e-05 -2.84171e-05 0.00182894 0.00916389 -0.0004719 0.004 300 0 
38 1 1 -0.0197795 -0.0373714 0.018283 0 0 0 0.00013276 1.57313e-05 -0.00012739 6.6559e-05 1.9351e-05 -0.000191463 -0.00850535 0.0131579 -0.000181216 0.004 300 0 
199 1 1 -0.0118548 -0.0370269 0.0176502 0 0 0 9.75455e-05 -2.73762e-06 -0.000248296 7.62658e-05 0.000114722 -0.000127862 -0.00661775 0.0258213 -0.0113486 0.004 300 0 
93 1 1 0.0137647 -0.0377757 0.0156806 0 0 0 6.18528e-05 7.23806e-06 -0.00011385 -9.16844e-05 -7.41832e-05 -7.55791e-05 0.000625751 -0.00711156 -0.00168049 0.004 300 0 
64 1 1 0.0280176 -0.036509 0.0179285 0 0 0 -2.20413e-05 -4.91398e-05 -6.66795e-05 0.000121267 6.315e-05 8.75359e-05 -0.00891571 -0.0286693 0.00625493 0.004 300 0 
22 1 1 -0.0327409 -0.0324227 0.0194572 0 0 0 4.19655e-05 -2.58207e-05 -3.44693e-05 -0.000111124 7.42027e-05 2.85521e-05 -0.00355098 0.0103678 -0.00561134 0.004 300 0 
174 1 1 -0.0224328 -0.03021 0.0162614 0 0 0 0.00010347 1.87647e-06 -8.88952e-05 1.77575e-05 2.54524e-05 2.90412e-05 0.00288669 0.022418 0.00475446 0.004 300 0 
32 1 1 -0.00428376 -0.0343962 0.0166777 0 0 0 3.77021e-05 8.05391e-05 -0.000239866 -9.63856e-05 -5.89781e-06 -1.54142e-05 -0.0405695 -0.00256692 -0.015417 0.004 300 0 
128 1 1 0.0034745 -0.0331325 0.0179962 0 0 0 2.42895e-05 0.000108802 -0.000265192 -0.00017433 -0.000103682 -7.23555e-05 -0.0134239 -0.00473414 0.0213565 0.004 300 0 
88 1 1 0.0113688 -0.0304831 0.0177101 0 0 0 6.49039e-05 3.85515e-05 -0.000171808 -1.06621e-05 -0.000107522 -3.57342e-05 -0.0129347 -0.00208447 -0.00583398 0.004 300 0 
137 1 1 0.0208045 -0.0338184 0.0156332 0 0 0 8.37365e-06 -8.27305e-06 -1.74108e-05 8.13136e-05 -0.00013701 -6.46208e-06 -0.0135275 -0.0154092 -0.0103507 0.004 300 0 
154 1 1 0.0339822 -0.0311388 0.0180548 0 0 0 5.35203e-05 2.05612e-05 5.10908e-05 1.28526e-05 3.47668e-05 4.23822e-05 0.00833752 0.00587537 -0.00738901 0.004 300 0 
52 1 1 -0.031991 -0.0252357 0.0161634 0 0 0 3.55042e-05 -6.24597e-05 -6.32751e-05 -9.59185e-05 7.84431e-05 2.37843e-05 0.00578034 0.00113208 -0.00804552 0.004 300 0 
80 1 1 -0.00960207 -0.0265062 0.0175806 0 0 0 4.23985e-05 8.86254e-05 -0.000152543 1.0097e-05 -5.14899e-05 7.95558e-05 -0.00892361 0.0165128 -0.00280427 0.004 300 0 
125 1 1 -0.00117311 -0.0267001 0.0173743 0 0 0 -2.34871e-05 3.48417e-05 -0.000177591 -0.000125607 -5.42615e-05 -9.17894e-06 0.011705 0.0226036 -0.00612088 0.004 300 0 
72 1 1 0.0179273 -0.0264313 0.0156366 0 0 0 -5.5849e-05 1.85653e-05 -0.000104377 8.89282e-05 -0.000211076 -0.000105635 -0.0122797 0.00190511 0.0286866 0.004 300 0 
34 1 1 0.0269647 -0.0287256 0.0154184 0 0 0 8.38401e-05 6.72157e-06 -2.75909e-05 3.74071e-06 -8.01817e-05 -5.26889e-05 -0.0416489 -0.0203209 0.00392999 0.004 300 0 
218 1 1 -0.0395975 -0.0234624 0.0176929 0 0 0 -6.74896e-06 -1.20547e-05 -2.79238e-05 -2.57625e-05 6.72131e-05 3.64556e-05 -0.00653634 0.00201865 0.00251781 0.004 300 0 
70 1 1 -0.0247185 -0.0230243 0.0185749 0 0 0 6.89883e-05 -2.78696e-05 -9.25416e-05 1.30081e-05 1.28791e-05 1.22238e-05 -0.0115779 0.00470592 0.0116561 0.004 300 0 
132 1 1 -0.0171331 -0.0242622 0.0164737 0 0 0 8.04127e-05 3.23662e-05 -0.000119466 -1.22025e-06 -5.08531e-05 2.10246e-05 -0.000998027 -0.00109515 0.00409139 0.004 300 0 
196 1 1 0.00716619 -0.0237889 0.0170606 0 0 0 3.49112e-05 -1.5821e-05 -8.69778e-05 -2.95251e-05 -8.89851e-05 7.52896e-05 0.0311334 0.0203837 0.0322077 0.004 300 0 
362 1 1 0.0243875 -0.0214294 0.017062 0 0 0 6.459e-05 -6.83849e-06 -8.23672e-05 8.85936e-05 -0.000120487 -7.89784e-05 0.0698884 -0.0657162 -0.0141315 0.004 300 0 
49 1 1 0.0387628 -0.0248028 0.0179814 0 0 0 5.65013e-05 -8.31064e-06 2.83855e-05 2.04696e-05 4.43049e-06 2.42904e-05 -0.00473863 -0.00118567 -0.00228828 0.004 300 0 
173 1 1 -0.0431204 -0.0163106 0.017715 0 0 0 -2.35893e-05 -3.46459e-05 -7.01658e-05 1.85138e-05 9.29519e-06 2.36527e-05 -0.0143774 0.0116456 -0.00690595 0.004 300 0 
50 1 1 -0.0295082 -0.0167649 0.0182817 0 0 0 4.02719e-06 -5.93273e-05 -0.000103094 0.000106937 6.72709e-05 -2.93766e-05 0.0267079 -0.0225457 0.0111792 0.004 300 0 
202 1 1 -0.0134623 -0.0172155 0.016111 0 0 0 6.05111e-05 4.23096e-05 -0.000103718 2.01321e-05 -9.62296e-05 1.91136e-05 0.000842734 -0.00115421 0.0214107 0.004 300 0 
86 1 1 -0.00524843 -0.0199161 0.0183761 0 0 0 5.18901e-05 9.2214e-05 -0.000112771 -4.7716e-05 -9.33506e-05 0.000118996 0.0130345 -0.046813 -0.00813082 0.004 300 0 
129 1 1 0.0138596 -0.0196294 0.0162859 0 0 0 3.2391e-06 5.80095e-06 -4.26199e-06 0.000122124 -0.000182081 -5.32354e-06 0.0234411 0.0103055 -0.0251507 0.004 300 0 
82 1 1 0.0291403 -0.0151358 0.0159323 0 0 0 5.42317e-05 -5.34709e-06 0.000141336 -3.7151e-05 -0.000170808 -0.000126856 -0.0263423 0.039702 0.0100413 0.004 300 0 
1 1 1 0.0424683 -0.017805 0.0178802 0 0 0 3.67994e-05 -1.89925e-05 1.8432e-05 2.11234e-05 2.60703e-06 4.91475e-05 0.00288968 0.000162329 0.00788768 0.004 300 0 
168 1 1 -0.0224813 -0.01363 0.0164161 0 0 0 6.69988e-05 -4.45811e-05 -5.96849e-06 6.98131e-05 -1.40858e-05 -1.22215e-05 6.75723e-05 0.0215431 -0.0152777 0.004 300 0 
121 1 1 -0.00514942 -0.0120188 0.0174566 0 0 0 0.000128527 9.47199e-05 -4.8369e-05 -3.1198e-05 -0.000123244 9.91053e-05 -0.00478274 -0.00951203 -0.00395102 0.004 300 0 
28 1 1 0.00814255 -0.0139808 0.0183182 0 0 0 9.5394e-05 5.00255e-05 4.14993e-05 2.31464e-05 -0.000222673 4.03008e-05 0.0382074 0.0238361 0.0169064 0.004 300 0 
42 1 1 0.0200409 -0.0148103 0.0172657 0 0 0 3.99194e-05 -6.40241e-05 8.89363e-05 0.00013087 -0.000202733 -0.000102112 0.017695 0.00383864 0.0128872 0.004 300 0 
60 1 1 0.0376283 -0.0116469 0.0161718 0 0 0 -5.63181e-05 -5.75301e-05 0.000174834 -0.00021858 -8.04024e-05 -9.49164e-05 -0.0131465 0.0229487 -0.0106059 0.004 300 0 
135 1 1 -0.0452102 -0.00864333 0.0176858 0 0 0 -2.23797e-05 -7.30093e-05 -8.13895e-05 0.000141749 6.2376e-05 -3.94785e-05 0.0162146 0.0268638 -0.00616617 0.004 300 0 
81 1 1 -0.0376103 -0.00944788 0.0199517 0 0 0 -0.000143496 -0.000142722 -0.000128389 0.000301401 0.000188887 -0.000206546 0.0294546 -0.0644771 0.0283716 0.004 300 0 
190 1 1 -0.0303516 -0.00906362 0.0166813 0 0 0 -0.000117272 -6.98843e-05 -1.42724e-05 0.000233751 1.54777e-05 -0.000120693 -0.0135615 0.0207983 0.00922497 0.004 300 0 
7 1 1 -0.0204517 -0.00598391 0.0162521 0 0 0 6.88449e-06 -0.000100364 1.76146e-05 0.000151503 4.52859e-05 6.31492e-05 0.0193575 0.0121911 0.0360779 0.004 300 0 
145 1 1 -0.011988 -0.00832365 0.0160601 0 0 0 8.8014e-05 4.95008e-06 -3.38372e-05 7.57226e-05 -2.22253e-05 3.9218e-05 0.00424489 0.0158981 0.0235552 0.004 300 0 
186 1 1 0.00215902 -0.00892663 0.0168412 0 0 0 0.000132027 0.000101425 9.81997e-05 3.90082e-05 -0.000219298 0.000100934 0.00272071 -0.0485189 -0.00316337 0.004 300 0 
56 1 1 0.0144132 -0.009164 0.0173807 0 0 0 5.19433e-05 3.61687e-05 0.000209814 2.31851e-05 -0.000309108 -2.23024e-05 0.0395329 0.0189212 -0.0333413 0.004 300 0 
191 1 1 0.0221377 -0.00718857 0.017096 0 0 0 -2.02475e-05 -3.34741e-05 0.000114364 -0.000102062 -0.00010294 -0.000201794 -0.0109817 0.0163434 0.0180616 0.004 300 0 
208 1 1 0.0315211 -0.00611616 0.0178093 0 0 0 -0.000128509 -8.36896e-05 0.000207921 -0.000332026 -0.000144627 -0.000103634 -0.00555038 0.0197119 -0.0212024 0.004 300 0 
92 1 1 0.0451137 -0.00920091 0.0172143 0 0 0 -1.72468e-05 -8.9695e-05 8.21282e-05 -0.000128102 -0.000123811 0.000176077 0.0485228 0.0121597 0.01378 0.004 300 0 
192 1 1 -0.0460776 -0.0007529 0.0176254 0 0 0 9.62255e-06 -3.36903e-05 -1.43428e-05 9.12048e-05 7.6396e-05 2.22566e-05 0.000594612 0.0191425 -0.00840319 0.004 300 0 
462 1 1 -0.0271595 -0.00181536 0.0172856 0 0 0 -0.000103362 -0.000130461 1.64868e-05 0.000107643 -3.46752e-05 -1.9877e-05 0.0173443 -0.020449 -0.0195882 0.004 300 0 
450 1 1 -0.0128214 -0.000776484 0.0182542 0 0 0 2.77957e-05 -3.61351e-05 -7.69695e-05 0.000184285 -0.000118381 -6.13268e-06 -0.00845941 0.0126713 0.0157045 0.004 300 0 