ITEM: TIMESTEP
9600
ITEM: NUMBER OF ATOMS
890
ITEM: BOX BOUNDS mm mm mm
-0.05 0.05
-0.05 0.05
0 0.15
ITEM: ATOMS id type type x y z ix iy iz vx vy vz fx fy fz omegax omegay omegaz radius f_Temp[0] f_heatFlux[0] 
59 1 1 -0.00071426 -0.0461001 0.00396066 0 0 0 -0.00178075 0.000267339 0.000461108 0.000571007 0.000630103 -0.00114229 0.207981 -0.0219135 0.481841 0.004 300 0 
170 1 1 -0.0173485 -0.0426422 0.00397185 0 0 0 0.000501613 0.000230411 0.000183785 0.000655244 -0.000433514 0.000472099 -0.221542 -0.0505627 -0.0338929 0.004 300 0 
15 1 1 -0.00974961 -0.0449635 0.0039405 0 0 0 0.0015944 0.000875915 -1.65339e-05 0.00104616 -0.00168093 -0.00368415 -0.239257 0.409146 0.368955 0.004 300 0 
116 1 1 0.00648756 -0.0428229 0.00395786 0 0 0 -0.00137399 0.00195945 -0.000130237 0.000123869 0.00109309 -0.000916011 -0.616038 -0.129942 -0.206767 0.004 300 0 
158 1 1 0.0143632 -0.0437576 0.00389617 0 0 0 -0.000236662 0.000335466 0.000969827 0.00116727 -0.00123139 -0.00114099 -0.102855 0.0265733 -0.116524 0.004 300 0 
98 1 1 0.0216847 -0.0406503 0.00393747 0 0 0 -0.000318583 -0.000410296 -5.84973e-05 -0.000652822 0.000634877 0.00080858 0.0482479 -0.0674178 -0.040183 0.004 300 0 
169 1 1 -0.0244263 -0.0390676 0.00391158 0 0 0 4.37063e-06 0.000245282 0.000465021 0.000912502 0.000806064 0.00375471 0.157546 -0.0153927 0.0272487 0.004 300 0 
89 1 1 -0.0118031 -0.0369303 0.00395585 0 0 0 -0.00130153 0.000667294 -0.000250445 -0.0017247 0.000319865 0.000417221 0.13436 -0.0677022 0.0112973 0.004 300 0 
152 1 1 -0.00417458 -0.0390206 0.00391995 0 0 0 -0.00212724 0.000351965 0.000234595 -0.000974186 0.000195596 -0.00222816 -0.106363 -0.368751 -0.170773 0.004 300 0 
23 1 1 0.0153608 -0.0358793 0.00391064 0 0 0 -0.000314644 8.1819e-05 -0.000120086 -0.000521925 -0.000286002 -0.00177018 0.029876 -0.174771 0.00913708 0.004 300 0 
118 1 1 -0.0307478 -0.0342446 0.00392366 0 0 0 -0.000743006 8.89397e-05 -0.00105796 0.00123679 -0.000417399 0.00698789 -0.19632 -0.116171 0.228499 0.004 300 0 
30 1 1 -0.0188655 -0.0333786 0.00395241 0 0 0 -0.00125615 0.00138161 0.000296464 -0.00113957 0.00190514 0.0027778 -0.23402 0.0309813 -0.0154728 0.004 300 0 
215 1 1 -0.00603436 -0.0313259 0.00390411 0 0 0 0.000117462 0.00068796 -3.43375e-05 -0.000653043 0.000340943 0.000604945 0.00178237 -0.100154 -0.516066 0.004 300 0 
74 1 1 0.00184607 -0.0338175 0.00391535 0 0 0 -0.000867089 0.000898921 0.000323757 -0.000673262 -0.00126346 -0.00339177 -0.407308 -0.321003 -0.0943785 0.004 300 0 
24 1 1 0.00918319 -0.0308291 0.00391615 0 0 0 0.000967323 0.000392241 -0.000960926 9.89643e-05 -0.00202575 -0.00309171 -0.219376 0.368838 -0.301357 0.004 300 0 
198 1 1 0.025886 -0.0339008 0.00395594 0 0 0 0.00173587 -0.00286648 0.000348923 0.000823114 0.000706995 0.00184572 0.239017 -0.0286968 -0.523458 0.004 300 0 
161 1 1 0.0335073 -0.0316389 0.00391568 0 0 0 0.000865469 0.000641194 -8.8804e-06 -0.000496829 0.00119326 0.000852641 -0.27399 0.281418 -0.135345 0.004 300 0 
8 1 1 -0.0322678 -0.0264293 0.00398366 0 0 0 -0.00206529 -0.00071176 -0.00122815 -0.00378024 0.00132043 0.000596167 0.589228 0.00427246 -0.0753313 0.004 300 0 
12 1 1 -0.0244069 -0.0277177 0.00385617 0 0 0 -0.00209536 0.00173299 0.00078431 -0.000912172 0.00263116 0.000966105 0.343112 -0.232058 0.210947 0.004 300 0 
188 1 1 -0.013166 -0.0277806 0.00397298 0 0 0 -0.000661513 0.000651727 0.000175992 -0.00280186 -5.23686e-05 -0.000926212 -0.10077 0.0476031 0.304701 0.004 300 0 
77 1 1 -0.000118068 -0.026072 0.00390494 0 0 0 -0.000316308 0.00165008 0.000722166 0.00201948 -0.00151345 0.000980017 -0.30159 -0.249616 0.807285 0.004 300 0 
113 1 1 0.0165709 -0.0280183 0.00387825 0 0 0 0.000739629 -0.000253964 -0.000106845 -0.000758186 0.0014421 -0.000449136 0.066938 0.0947749 -0.385152 0.004 300 0 
183 1 1 0.0384369 -0.0253985 0.00393419 0 0 0 0.000965221 0.000458898 6.78953e-06 -0.000336592 0.000166283 0.00195424 -0.020376 0.014611 -0.194127 0.004 300 0 
162 1 1 -0.0396305 -0.0234294 0.0039001 0 0 0 -0.000730645 0.000618945 0.000636416 -0.00246254 0.00297132 -0.00135479 -0.0601459 -0.0748016 0.0948181 0.004 300 0 
53 1 1 -0.0272107 -0.0202682 0.00395735 0 0 0 -0.00389632 0.000611693 0.000637238 -0.00384105 0.0013739 -0.00102599 -0.371784 0.869129 0.548578 0.004 300 0 
148 1 1 -0.0187517 -0.0220878 0.00393498 0 0 0 -0.00162309 0.000745442 0.000886857 -0.000692398 0.00297907 0.000642717 -0.173462 -0.358664 0.664623 0.004 300 0 
195 1 1 -0.00731596 -0.0216002 0.00395024 0 0 0 0.00756736 0.0118571 0.000907261 -0.0015886 -0.000869373 -0.00180805 -3.01053 1.97132 -3.0857 0.004 300 0 
179 1 1 0.00729612 -0.023111 0.00393251 0 0 0 0.00245214 0.000706721 -0.000137627 0.000442015 -0.000190141 8.47625e-05 0.0767595 0.221275 0.0623271 0.004 300 0 
95 1 1 0.0148413 -0.0203104 0.00393127 0 0 0 0.00143827 -3.90028e-06 0.00011012 0.00122239 0.00160664 0.000656973 -0.065359 0.285184 0.246347 0.004 300 0 
76 1 1 0.0230031 -0.0232979 0.00395929 0 0 0 0.00222542 -1.36154e-05 0.000436387 -0.00243487 0.000694954 0.00276939 0.159851 0.612135 0.527277 0.004 300 0 
100 1 1 0.0325846 -0.0200682 0.00389046 0 0 0 0.00176359 0.0011411 -0.000455193 -0.000282857 -0.000163046 0.00241235 -0.453572 0.482744 0.0587848 0.004 300 0 
65 1 1 -0.0430774 -0.0162956 0.0039307 0 0 0 9.97515e-05 0.000827435 0.00117538 0.000483214 0.00205066 -0.00350341 0.0409751 -0.106457 -0.135691 0.004 300 0 
102 1 1 -0.0351836 -0.0154282 0.00393539 0 0 0 0.00184125 -0.00286479 0.000179001 0.000964888 0.00575125 -0.00143539 -0.229703 0.180471 2.10848 0.004 300 0 
213 1 1 -0.0132585 -0.0162816 0.00397723 0 0 0 -0.000892185 0.00251895 -2.56784e-05 -0.00300529 0.00178194 -0.00250825 -0.243261 0.249605 2.30278 0.004 300 0 
10 1 1 0.00110135 -0.0182438 0.00474469 0 0 0 0.000993775 -3.77857e-05 -0.00035652 -0.000962957 0.000925636 0.000188429 -0.453567 0.165274 0.302318 0.004 300 0 
5 1 1 0.00878402 -0.01526 0.00390307 0 0 0 0.000790342 5.40384e-05 0.000475412 -0.000155573 0.000714699 0.00129009 -0.257732 0.22413 -0.00420015 0.004 300 0 
96 1 1 0.0211521 -0.0155179 0.00395051 0 0 0 0.00253628 -1.37423e-05 0.00127702 0.000535288 -0.000255659 0.00225731 0.109271 -0.419703 -0.488704 0.004 300 0 
167 1 1 0.0421818 -0.0183927 0.00391807 0 0 0 0.00022664 0.000616567 0.000528257 0.000305329 -0.00158723 0.00136208 0.353664 -0.0426398 0.248162 0.004 300 0 
124 1 1 -0.0289572 -0.0104949 0.00394117 0 0 0 -0.00316204 0.00297994 0.00041085 0.000340802 -0.00117535 -0.000674188 -0.756082 -0.755697 -0.338632 0.004 300 0 
220 1 1 -0.0217383 -0.0145161 0.0039837 0 0 0 -0.00513539 0.00271378 0.0014507 -0.000816713 -0.00277136 0.0019219 -0.234895 -1.5608 0.100755 0.004 300 0 
144 1 1 -0.00538903 -0.0137907 0.0038876 0 0 0 -0.000184368 -0.000395957 -0.000499349 -7.72587e-05 0.000838747 0.000334911 0.166873 -0.0103673 -0.101664 0.004 300 0 
26 1 1 0.00253511 -0.0104681 0.00391467 0 0 0 -0.000422356 -0.00073862 -0.00042776 -0.00174538 -0.000688183 -0.000982509 0.158472 -0.127117 0.185921 0.004 300 0 
194 1 1 0.0287261 -0.0131064 0.00393042 0 0 0 0.00207584 0.001662 -0.000509243 0.000613547 -0.00115486 0.0010657 -0.397976 0.444485 0.845759 0.004 300 0 
37 1 1 0.0366646 -0.0122054 0.00393578 0 0 0 0.00321223 0.00184885 -3.89739e-05 0.000897409 0.0021031 6.85958e-05 -0.243827 0.776336 -0.443307 0.004 300 0 
219 1 1 0.0447155 -0.0108941 0.00389519 0 0 0 0.000622675 0.000491286 7.70378e-05 -0.000876479 8.80906e-05 0.000582569 -0.377656 0.224198 -0.327484 0.004 300 0 
636 1 1 -0.0451926 -0.00865992 0.0039184 0 0 0 -1.92768e-05 0.000902125 0.00276394 -0.00200378 0.00102667 -0.00385937 -0.0174571 -0.0798698 -0.0142548 0.004 300 0 
39 1 1 -0.0161678 -0.00886134 0.00388428 0 0 0 -0.00123053 0.00151612 0.00159502 0.000860037 -0.00194285 0.000487012 -0.65601 0.0444969 -1.14128 0.004 300 0 
171 1 1 -0.00397818 -0.00597411 0.00391643 0 0 0 -2.92776e-05 -8.53208e-05 -0.000502093 -0.00126487 -0.000215043 -0.000791338 -0.197982 0.0229097 -0.255628 0.004 300 0 
200 1 1 0.0146029 -0.00984999 0.00396353 0 0 0 0.00188659 -0.000567555 -2.46052e-05 8.16209e-05 0.00281109 -6.25102e-05 0.157426 -0.187271 -0.19034 0.004 300 0 
21 1 1 0.0222319 -0.00761791 0.00393755 0 0 0 0.00164079 0.000329362 0.00108385 0.000431657 0.000591703 0.00174883 -0.0537716 -0.00108543 0.394634 0.004 300 0 
17 1 1 0.0298454 -0.00521306 0.00394956 0 0 0 0.00150139 0.00146673 -7.03626e-05 2.35823e-05 0.00137659 -0.000823121 -0.230451 0.469776 -0.2142 0.004 300 0 
477 1 1 -0.0446236 -0.000725759 0.00396118 0 0 0 0.00191896 0.00136865 0.00293868 0.00206819 0.000795187 -0.00253144 -0.11609 0.335521 -0.105723 0.004 300 0 
140 1 1 -0.0352731 -0.00369216 0.00386714 0 0 0 0.000982806 -0.00147275 0.00288035 -0.00187606 -1.67993e-05 -0.00164666 0.565781 0.390943 -0.140831 0.004 300 0 
119 1 1 -0.0273981 -0.00270642 0.00395761 0 0 0 -0.000219393 0.00160967 0.000970214 -0.00278166 -0.000566506 7.78219e-05 -0.128048 0.284517 0.688281 0.004 300 0 
207 1 1 -0.0195121 -0.00170246 0.00389073 0 0 0 -0.000115049 0.00230501 0.000156012 -0.000440187 -0.00354123 0.000947185 -0.374084 0.528202 0.783747 0.004 300 0 
69 1 1 -0.0111758 -0.00264192 0.0039181 0 0 0 -0.00102104 -0.00107914 0.000120284 -0.000483975 0.00054325 0.000594454 0.414364 -0.107336 0.722737 0.004 300 0 
221 1 1 0.00876713 -0.00442542 0.00392732 0 0 0 -0.000583721 -0.00410692 -0.00169135 -0.00280671 -0.00489034 -0.00234252 0.847436 -0.281321 -0.139725 0.004 300 0 
457 1 1 0.0163879 -0.00206267 0.00395894 0 0 0 -6.28884e-05 -0.00143706 -0.00023383 -0.00170865 0.0014467 -0.00185408 0.226862 0.0371769 0.270275 0.004 300 0 
155 1 1 0.0378971 -0.00229207 0.00394472 0 0 0 0.0030026 0.00308471 0.000303424 -0.000607016 0.00101933 -0.00165086 -0.609483 0.784999 0.178421 0.004 300 0 
665 1 1 0.0459213 -0.00310892 0.00394505 0 0 0 0.000741271 -0.000348724 0.000619233 0.000675437 0.00041076 0.000255766 0.721476 0.141765 0.221828 0.004 300 0 
120 1 1 0.0091937 -0.0371151 0.00876274 0 0 0 -0.000364423 0.0004423 -0.000652397 0.00107958 0.00225738 -0.00353399 0.683346 0.115005 -0.136658 0.004 300 0 
9 1 1 -0.0246959 -0.0333643 0.00937532 0 0 0 -0.0009555 0.00141659 0.00172418 0.00312928 0.00023048 0.00564395 -0.387335 0.00832738 0.587411 0.004 300 0 
101 1 1 -0.0188635 -0.0277308 0.00956524 0 0 0 -0.00198272 0.000729813 0.00121459 0.000945841 0.0053688 0.00225274 0.513177 -0.185255 -0.359999 0.004 300 0 
48 1 1 0.0221898 -0.0292478 0.00922737 0 0 0 0.00107026 -0.00153769 -0.00135709 -0.000711414 -0.000531107 0.00267073 0.259811 0.319177 0.295535 0.004 300 0 
75 1 1 0.0293631 -0.0261718 0.00783828 0 0 0 0.000605835 0.000471709 -0.000928104 -0.00130002 -0.000152429 0.00256527 0.309004 -0.679505 -0.128457 0.004 300 0 
46 1 1 -0.0328759 -0.0205547 0.00952396 0 0 0 0.00270724 0.00194816 0.00554394 0.000723816 0.00289813 -0.000250438 -0.00205879 -0.514129 -1.53176 0.004 300 0 
33 1 1 -0.013042 -0.0220292 0.00950971 0 0 0 -0.00014612 0.00337534 -0.00263334 -0.000462136 -0.00166233 -0.00187274 -0.377691 -0.000353879 0.0622355 0.004 300 0 
11 1 1 0.0268913 -0.0187573 0.00923156 0 0 0 0.00306366 0.00168393 9.33042e-05 6.4436e-05 0.000380687 0.00244938 0.321261 -0.104869 -0.470355 0.004 300 0 
71 1 1 -0.037313 -0.00949296 0.00877752 0 0 0 0.000981288 -0.00280515 0.00191584 0.00257887 0.00299175 0.000637726 0.480419 0.930301 -1.07031 0.004 300 0 
62 1 1 -0.022811 -0.00769235 0.00814933 0 0 0 -0.00198016 0.000674365 0.000199884 0.000268655 -0.00139513 -0.00122444 -0.111466 -0.234849 -1.22786 0.004 300 0 
19 1 1 -0.00974964 -0.00901856 0.00848981 0 0 0 0.00025858 -0.000289414 0.000769378 -0.000368672 -0.00192571 0.00156518 -0.0163947 0.429757 0.286371 0.004 300 0 
187 1 1 0.00799346 -0.00984894 0.00972678 0 0 0 -0.00191581 -0.000407085 0.00116388 -0.00175546 -5.02291e-05 -0.00416214 -0.517453 -0.934883 0.926547 0.004 300 0 
157 1 1 0.0395192 -0.00753014 0.0096954 0 0 0 0.00369415 0.00256841 -0.000164564 2.81772e-05 0.000118778 0.0012346 -0.342734 -0.973991 0.1774 0.004 300 0 
18 1 1 0.00232828 -0.00406662 0.00854713 0 0 0 -0.00109486 -0.00249243 -0.00146542 -0.00192048 -0.00240907 -0.00137493 0.123737 1.47984 0.696595 0.004 300 0 
185 1 1 -0.00530566 -0.0457298 0.0104566 0 0 0 -0.00021683 0.00167175 0.00208428 0.00169204 -0.00338766 -0.00355087 -0.229688 -0.952486 -0.577939 0.004 300 0 
83 1 1 0.00257658 -0.0459503 0.0112708 0 0 0 -8.66836e-05 -0.000971903 0.00303188 0.00267286 -0.000541388 -0.00189547 0.664496 0.803579 -0.148566 0.004 300 0 
58 1 1 -0.021824 -0.0406003 0.0112677 0 0 0 -0.000305453 -0.000235128 0.000792311 -0.00297303 0.00407013 0.00354674 0.0514237 -0.311549 -0.0917852 0.004 300 0 
105 1 1 -0.0135989 -0.0439653 0.0108833 0 0 0 0.000373416 0.000271003 0.00179757 0.000651176 -0.00141272 -0.000230394 0.285425 -0.234239 -0.090191 0.004 300 0 
223 1 1 0.0104067 -0.0448715 0.0106665 0 0 0 4.44296e-05 -0.000891615 0.00071561 0.0021613 0.000688247 -0.000584521 0.233597 -0.186069 0.103442 0.004 300 0 
217 1 1 0.0179519 -0.0424289 0.0108206 0 0 0 -0.00023164 0.000393318 0.00303192 0.000857601 -0.000274864 -0.000244042 0.949784 0.54571 0.0597853 0.004 300 0 
6 1 1 -0.016232 -0.0350452 0.0113087 0 0 0 -0.00172403 0.00173501 0.000167754 0.00185342 0.00169578 0.00106878 -0.271522 0.287944 0.726102 0.004 300 0 
151 1 1 -0.00802655 -0.0382636 0.0108244 0 0 0 -0.000248911 0.00244231 0.000198468 0.00122525 -0.00227497 -0.00223722 -0.433628 0.449551 0.668434 0.004 300 0 
2 1 1 0.000464961 -0.0383084 0.0102964 0 0 0 -0.00161244 -0.00173745 0.00012476 0.00273003 -0.00255639 -0.00577527 1.07066 0.541836 0.194805 0.004 300 0 
117 1 1 0.0249263 -0.0387417 0.010913 0 0 0 0.000488605 0.000636608 -0.000599567 -0.000801641 0.00234331 0.00121666 -0.523002 0.433658 -0.144445 0.004 300 0 
13 1 1 -0.0323315 -0.0327732 0.0115338 0 0 0 3.24293e-06 0.000698776 8.63458e-05 0.00104166 0.00394841 0.00758513 0.241593 -0.0820518 -0.675928 0.004 300 0 
193 1 1 -0.00981114 -0.0304969 0.0107718 0 0 0 -0.00176702 0.0029523 -0.000885475 0.00123734 0.00067863 0.00102208 -0.17397 -0.416795 -0.442448 0.004 300 0 
47 1 1 -0.00141843 -0.0305639 0.0103712 0 0 0 0.000887018 0.00159843 -0.000436615 0.00210933 -0.00254662 -0.00123074 0.0291575 0.60298 0.308359 0.004 300 0 
153 1 1 0.00647896 -0.030016 0.0113068 0 0 0 0.00308533 0.00423611 -0.00205328 -0.00255905 -0.00222084 0.00488781 -0.861509 0.0920224 0.515688 0.004 300 0 
41 1 1 0.0147969 -0.0317753 0.0106324 0 0 0 0.000654669 -0.000702399 0.000514939 -0.00100892 0.00151877 -0.00200522 0.0968195 0.339372 -0.503738 0.004 300 0 
163 1 1 0.0311434 -0.0339217 0.0111362 0 0 0 0.000943537 0.00105967 -0.000516074 -0.00127409 0.00273203 0.00175272 0.519994 -0.446149 0.117808 0.004 300 0 
214 1 1 -0.037495 -0.0268564 0.0106813 0 0 0 -0.00113451 0.00256848 0.0021857 0.00206958 0.00259412 -0.00159661 0.513279 -0.19799 0.765388 0.004 300 0 
210 1 1 0.0364603 -0.0281048 0.0111131 0 0 0 0.000440685 0.00117888 0.0018562 0.000711621 0.000925282 0.00260942 -0.355367 -0.217763 0.150228 0.004 300 0 
108 1 1 -0.0261511 -0.024567 0.0108478 0 0 0 9.23892e-05 -0.00482779 0.00556977 0.00293985 0.002207 -0.00149195 1.50642 0.0312876 -0.786108 0.004 300 0 
40 1 1 -0.00551396 -0.0238462 0.0113553 0 0 0 2.60105e-05 0.00219924 0.000900539 -0.000200049 -0.00303625 -0.00429336 0.460739 -0.764724 -0.3113 0.004 300 0 
55 1 1 0.00235508 -0.0232314 0.0108304 0 0 0 0.000729195 0.0023558 0.0018681 0.000921795 -7.2761e-05 -0.00114224 0.574132 0.747443 0.150879 0.004 300 0 
91 1 1 0.0120308 -0.0243908 0.0101485 0 0 0 0.00300167 0.000433391 0.0013321 0.00195451 0.00208979 -0.00145338 0.0602212 -0.397061 0.0355076 0.004 300 0 
112 1 1 0.0192916 -0.0205935 0.0104865 0 0 0 0.00253702 0.00173981 -0.000560553 -0.000855007 0.00131788 0.00346784 -0.198914 -0.0113602 0.260326 0.004 300 0 
178 1 1 0.0318421 -0.0225208 0.0144467 0 0 0 -0.0003002 0.00138737 -0.00302846 -0.00385212 -0.00140515 0.00486862 -0.659311 0.471398 -0.21833 0.004 300 0 
131 1 1 0.0407743 -0.0214825 0.0110497 0 0 0 0.00061527 -8.0888e-05 0.000648582 0.000164877 -0.000746628 0.00176121 -0.093809 0.220135 -0.201884 0.004 300 0 
160 1 1 -0.0414619 -0.0199546 0.0108032 0 0 0 -0.00216703 0.0017365 0.00162547 -0.000571119 0.00328487 -0.00375247 -0.0786378 -0.16421 -0.329842 0.004 300 0 
43 1 1 -0.0361236 -0.0150642 0.0142491 0 0 0 0.000445477 0.000910686 0.00563515 0.00347744 0.000274613 0.00163953 -2.07751 -0.530532 0.171386 0.004 300 0 
4 1 1 -0.0270811 -0.0151482 0.0100913 0 0 0 0.00554415 0.00324827 -0.00106897 0.000460913 -0.0018468 0.00185768 1.21034 2.27177 2.44882 0.004 300 0 
104 1 1 -0.0203125 -0.0192232 0.0111695 0 0 0 -0.00118639 -0.000536115 0.00370027 0.000983675 0.00182667 -0.00057053 -0.645916 1.69554 1.86989 0.004 300 0 
20 1 1 -0.00770272 -0.0162631 0.0110123 0 0 0 0.00580737 0.00316085 0.00226358 0.003025 -0.00251406 -0.000574136 0.429155 -1.67933 0.271682 0.004 300 0 
45 1 1 0.000820834 -0.0163741 0.0146037 0 0 0 0.00469811 0.0004081 0.00392519 -0.0028864 -0.00194791 -0.000928913 -1.02624 0.923303 1.10215 0.004 300 0 
159 1 1 0.00795404 -0.0176654 0.0113669 0 0 0 0.00289146 0.000356901 0.00190801 -1.62757e-05 0.00274242 0.00188074 0.157186 0.189328 -0.359788 0.004 300 0 
136 1 1 0.0348218 -0.016321 0.010477 0 0 0 0.00165506 0.00129719 -0.00110107 0.000268628 -0.000980992 0.00293861 0.369275 -0.686028 -0.0725127 0.004 300 0 
177 1 1 -0.0443276 -0.0125495 0.010818 0 0 0 -0.000740219 0.0012922 0.00302946 0.000450505 0.000834537 -0.000281789 0.188816 -0.328198 0.0988263 0.004 300 0 
139 1 1 -0.0168579 -0.0120972 0.0110492 0 0 0 -0.00237535 0.001061 0.00139636 -0.000634909 -0.00411299 -0.00269614 1.35261 0.867442 -1.45355 0.004 300 0 
211 1 1 -0.00214812 -0.0103788 0.0103195 0 0 0 0.000349422 -0.00268775 0.000433224 -0.000573657 -0.00175858 0.000155413 -0.253414 -0.310723 -0.474634 0.004 300 0 
54 1 1 0.014956 -0.0139279 0.0108089 0 0 0 0.00214318 0.00108316 2.38114e-05 0.000663781 0.000676075 0.00122578 0.382843 0.32381 0.225025 0.004 300 0 
84 1 1 0.0233034 -0.0118076 0.0106419 0 0 0 0.00213616 0.00167098 0.00250425 0.00151619 0.00168659 0.0017553 0.0369262 0.997146 0.518292 0.004 300 0 
180 1 1 0.0438109 -0.0141196 0.0110148 0 0 0 0.00119737 0.000265035 6.51072e-05 -0.00103227 -0.000714391 -6.92953e-06 0.522228 0.0037354 0.0181156 0.004 300 0 
103 1 1 0.0174727 -0.00638949 0.0105528 0 0 0 -1.2865e-05 0.00100421 0.00138887 0.0011562 0.00335057 -0.000126963 -0.520125 -0.491606 0.373689 0.004 300 0 
156 1 1 0.0309071 -0.00945719 0.0106161 0 0 0 0.00170973 0.00202143 -0.00133636 -8.06496e-05 -4.01268e-05 0.000113178 0.168396 -0.176517 -0.243851 0.004 300 0 
197 1 1 -0.0457827 -0.00473483 0.0107586 0 0 0 0.00101238 0.00213137 0.00384774 0.000591566 -0.00228997 -0.00107791 -0.0748419 0.0455696 -0.724222 0.004 300 0 
87 1 1 -0.03861 -0.00373547 0.0141283 0 0 0 0.00055846 -0.00374488 0.00720472 0.00144529 -0.000714544 8.15814e-05 0.285051 -0.673886 1.37265 0.004 300 0 
130 1 1 -0.0313624 -0.00384926 0.0107692 0 0 0 -0.00053888 -0.00260526 0.00281119 -0.00590257 -1.88822e-05 -0.00435593 -0.0843319 -0.768002 0.810656 0.004 300 0 
604 1 1 -0.0225056 -0.000286683 0.0110625 0 0 0 -0.00111566 -0.000360726 0.00180187 -0.00212353 -0.00308714 0.000462121 0.592987 -0.449465 0.573184 0.004 300 0 
146 1 1 -0.0155041 -0.00388068 0.0104078 0 0 0 -0.00187558 -0.00513764 0.000165735 -0.000520695 0.000390184 0.00527052 0.268729 -0.0801303 -0.293037 0.004 300 0 
57 1 1 -0.00522198 -0.00306038 0.0111611 0 0 0 0.00110582 -0.000807289 -0.00166671 -0.00167468 -0.00295584 0.00102606 0.329533 0.329559 0.74313 0.004 300 0 
493 1 1 0.0117718 -0.000867447 0.0103575 0 0 0 -0.00362378 -0.00325617 -0.00240301 -0.00383719 -0.00459494 -0.000658724 -1.53827 0.809013 0.882147 0.004 300 0 
31 1 1 0.0250702 -0.00405248 0.0104241 0 0 0 0.000496233 0.00142261 0.0017164 -0.000265552 0.00191305 -0.000467206 -0.247525 0.318226 -0.250952 0.004 300 0 
588 1 1 0.032603 -0.00174134 0.01055 0 0 0 0.00012102 0.00137587 0.000193545 0.000983855 6.35842e-05 -0.00536687 0.256555 -0.637504 0.594416 0.004 300 0 
63 1 1 0.0459176 -0.00335791 0.0119362 0 0 0 0.000886701 0.00564713 0.00371322 0.000796805 -0.000820036 -0.0014225 -0.102723 0.722778 -0.212564 0.004 300 0 
107 1 1 -0.00843221 -0.0452835 0.0177286 0 0 0 -0.00477123 0.00124382 0.0016475 0.00165351 0.00233795 -0.0017487 0.212504 -0.427738 0.413212 0.004 300 0 
222 1 1 -0.00134184 -0.0418036 0.0171744 0 0 0 -0.00229655 -0.000136616 0.00271344 0.00388378 -0.00191414 -0.000797468 -1.72738 -0.41183 -0.816145 0.004 300 0 
142 1 1 0.00620716 -0.04015 0.0154348 0 0 0 -0.000647164 -0.00231303 -0.00123649 0.00107078 0.000740161 -0.00437139 -0.0906148 -0.24866 0.471386 0.004 300 0 
172 1 1 0.011674 -0.0446134 0.0190281 0 0 0 -0.000715775 -0.000487968 0.00189864 -0.0011371 0.00212694 -0.00360622 0.633893 -0.874675 0.354312 0.004 300 0 
109 1 1 0.02041 -0.041293 0.0183263 0 0 0 -0.00206725 0.000785487 0.00455189 -0.00182639 0.000908566 -0.00380034 0.956041 0.392997 0.201047 0.004 300 0 
150 1 1 -0.0273045 -0.0371039 0.0158492 0 0 0 -0.000928471 -0.000334003 0.00346515 -0.00170835 0.00398662 0.00498376 0.16175 0.0373583 0.287972 0.004 300 0 
38 1 1 -0.0197617 -0.037367 0.018274 0 0 0 -0.0029026 -0.00111161 4.43558e-05 0.00416068 0.00638601 0.00431926 0.435445 -0.263503 -0.515472 0.004 300 0 
199 1 1 -0.0118284 -0.0370145 0.0176863 0 0 0 -0.000311792 -0.00196327 0.000212075 0.000862253 -0.000158664 -0.000454102 0.967539 -0.184305 0.750136 0.004 300 0 
93 1 1 0.0137848 -0.0377642 0.0156718 0 0 0 -0.00156204 0.000663637 0.00288779 -0.000495824 0.00191132 -0.00341305 -0.743922 -0.961886 0.331803 0.004 300 0 
64 1 1 0.0279583 -0.036533 0.017953 0 0 0 0.00375013 0.00253162 -0.00288927 -0.00111082 0.000993761 0.00523106 -0.463212 0.211942 -0.0359053 0.004 300 0 
22 1 1 -0.0327124 -0.032455 0.0194542 0 0 0 0.000452975 -0.000113889 0.000974304 0.000440482 0.00251809 0.0213198 -0.29293 -0.30321 0.291338 0.004 300 0 
174 1 1 -0.0224484 -0.0301986 0.0162709 0 0 0 -0.00185314 0.00119363 0.00375851 0.00230263 0.00294142 0.00109663 1.22862 0.0605319 -0.00171529 0.004 300 0 
32 1 1 -0.00428127 -0.0344217 0.0167006 0 0 0 0.000180103 0.00344379 0.000293333 0.00172783 -0.00529448 -0.00177741 1.11012 0.395579 0.315475 0.004 300 0 
128 1 1 0.00349098 -0.033154 0.017958 0 0 0 0.00119307 0.00188149 -0.00298091 -0.000783965 -0.00200859 0.0148597 1.09632 -0.731808 -1.61461 0.004 300 0 
88 1 1 0.011288 -0.0304786 0.0176199 0 0 0 0.00138223 0.00364979 0.000649075 -0.00303112 0.00101761 -0.00487115 0.302598 -0.196421 -1.2745 0.004 300 0 
137 1 1 0.0207354 -0.0338732 0.0155439 0 0 0 -0.00213657 -0.000379591 -0.000728238 0.00113796 0.00204766 0.00269692 -1.22243 -0.14591 0.521676 0.004 300 0 
154 1 1 0.0339879 -0.031139 0.0180478 0 0 0 -0.000116295 0.00254529 0.00318682 0.00253943 0.00179763 0.00145297 0.754664 0.276455 -0.392157 0.004 300 0 
52 1 1 -0.031999 -0.0252916 0.0161197 0 0 0 -0.0018062 0.00341858 0.00484766 0.00411612 0.00249001 -0.00155565 -0.225893 -0.308233 -0.531227 0.004 300 0 
80 1 1 -0.00963362 -0.0265142 0.0175874 0 0 0 -0.000377739 -8.31599e-05 0.00160655 0.00196019 0.00165252 -0.00466893 0.361212 0.974955 0.0100597 0.004 300 0 
125 1 1 -0.00117531 -0.026752 0.0173793 0 0 0 0.0042462 0.00255938 -0.00193751 0.0011727 -0.000818863 -0.00117612 0.22143 1.51661 1.28439 0.004 300 0 
72 1 1 0.0179555 -0.0264672 0.0156441 0 0 0 0.000565211 0.000546686 -0.00205667 -0.00113264 -0.001235 0.00280584 0.779941 0.721247 -1.29126 0.004 300 0 
34 1 1 0.026953 -0.0287173 0.0154615 0 0 0 -0.000318776 0.00191559 0.000744731 -0.000926865 -0.00063181 0.00642659 -0.95371 -0.854202 0.521333 0.004 300 0 
218 1 1 -0.0395896 -0.0234874 0.017656 0 0 0 -0.00260384 0.00384912 0.00119589 0.0027181 0.000318089 -0.00250663 -0.540545 -0.3618 0.950992 0.004 300 0 
70 1 1 -0.0247661 -0.0229788 0.0184824 0 0 0 -0.000309733 0.000700697 0.0052403 0.00517532 0.00117867 -0.000177921 -0.915868 0.209347 -0.599893 0.004 300 0 
132 1 1 -0.0171657 -0.024225 0.0164916 0 0 0 -0.00108765 -0.00239352 0.00231162 0.00382643 -0.00209921 -0.00132766 -0.199192 -0.0257059 -0.17221 0.004 300 0 
196 1 1 0.00712104 -0.023753 0.0170984 0 0 0 0.00532766 0.00476253 0.00269323 -0.00353024 -0.00119552 0.00322283 -0.345264 -0.537473 0.370077 0.004 300 0 
362 1 1 0.0243846 -0.0214036 0.0171595 0 0 0 0.00197176 0.00288673 0.0021295 -0.00257883 -0.000996945 0.00193892 0.887007 2.56285 -0.959954 0.004 300 0 
49 1 1 0.0387671 -0.0248076 0.0179749 0 0 0 0.00120209 0.000877438 0.00336982 0.00122773 -0.00448487 0.00197021 -0.403128 -0.0764176 -0.138069 0.004 300 0 
173 1 1 -0.0431098 -0.0163381 0.0177133 0 0 0 -0.00116891 0.00130954 0.00325017 0.0016204 -0.000552233 -0.00305482 0.906277 -0.334917 0.217448 0.004 300 0 
50 1 1 -0.0295632 -0.0167172 0.0183328 0 0 0 0.00209608 0.0028128 0.00709536 0.003622 0.00122577 0.00159642 1.11118 0.659355 0.0648685 0.004 300 0 
202 1 1 -0.0135756 -0.0171438 0.0162177 0 0 0 -0.000857845 -0.00444225 -0.00592226 -0.000519142 -0.000191882 0.0024586 -0.106519 0.906924 0.38828 0.004 300 0 
86 1 1 -0.00520941 -0.0199693 0.0183289 0 0 0 0.00260424 -0.000139777 0.0013039 0.00151447 -0.00368536 -0.00297313 0.462777 -1.70763 -0.892035 0.004 300 0 
129 1 1 0.0138677 -0.0196856 0.0162408 0 0 0 0.00558405 0.00293996 0.0014483 -0.00244206 -0.00246279 0.00373347 -0.524784 0.761296 -0.386204 0.004 300 0 
82 1 1 0.0291252 -0.0151205 0.0159088 0 0 0 0.000249829 0.00388507 -0.000288272 0.000409112 -0.00277586 0.00205398 -0.871158 -0.948193 0.87852 0.004 300 0 
1 1 1 0.0424867 -0.0178006 0.0178586 0 0 0 0.00152066 -0.000180388 -0.000657713 0.000668706 -0.00172989 -0.00130586 -0.348039 -0.00417096 -0.116699 0.004 300 0 
168 1 1 -0.0225117 -0.0136677 0.0164186 0 0 0 0.00206759 0.00279386 0.00398537 0.00139617 7.4658e-05 0.00137841 0.375923 0.638046 -0.579129 0.004 300 0 
121 1 1 -0.00536483 -0.0121071 0.0173704 0 0 0 0.0058972 -0.000185736 0.00314686 0.000794821 -0.00734179 0.00131738 -0.0693263 2.39114 0.144318 0.004 300 0 
28 1 1 0.00798954 -0.0137153 0.0182369 0 0 0 0.00439684 -0.00244136 0.0052413 0.00253866 -0.00690886 0.00884966 -0.240799 0.64621 1.06769 0.004 300 0 
42 1 1 0.0199968 -0.014788 0.0172305 0 0 0 0.00401348 0.00405534 0.00426545 -0.00108374 -0.00145682 8.99243e-06 -0.457678 -2.58411 0.562666 0.004 300 0 
60 1 1 0.0375676 -0.0116254 0.0162336 0 0 0 -0.000799195 -0.000413435 -0.000697852 -0.00283963 -0.00344677 0.000166996 0.205612 -0.607603 0.0953477 0.004 300 0 
135 1 1 -0.0452056 -0.00867457 0.0176909 0 0 0 -0.00039482 0.00359144 0.00466898 0.00171038 -0.000685691 0.00773435 -0.456015 0.164605 -0.697495 0.004 300 0 
81 1 1 -0.0376075 -0.00947892 0.0199484 0 0 0 -0.00260722 0.000111616 -0.00072483 -0.00363234 -0.00505298 0.0099542 -1.22968 -0.628697 0.468581 0.004 300 0 
190 1 1 -0.0303544 -0.00902206 0.0166937 0 0 0 -0.000336475 0.000791695 0.00751694 -0.0031202 0.000401457 -0.00595696 -1.16755 -0.403493 0.607632 0.004 300 0 
7 1 1 -0.0204989 -0.006006 0.0162013 0 0 0 0.00340531 0.00492927 0.00815669 0.0025515 -0.00413304 0.000420846 0.57373 -0.035344 0.567815 0.004 300 0 
145 1 1 -0.012073 -0.00824187 0.0160411 0 0 0 -0.001058 -0.00476463 0.00524934 -0.0052769 -0.00863405 0.00418567 -1.19916 -0.788076 0.984261 0.004 300 0 
186 1 1 0.00182161 -0.00883335 0.0170703 0 0 0 0.00601907 0.000931928 -0.000792542 0.00311506 -0.00110579 -0.00123326 1.65444 -0.76687 -0.0744483 0.004 300 0 
56 1 1 0.0144061 -0.00910328 0.0173954 0 0 0 0.00171387 0.00171677 0.00336494 -0.00301606 -0.00237658 0.0028216 2.57251 1.43915 0.220969 0.004 300 0 
191 1 1 0.0220967 -0.00716425 0.0170148 0 0 0 0.000107707 0.00584709 0.00265478 -0.00254235 -0.000981794 -0.000750662 -0.88298 -0.714634 0.655608 0.004 300 0 
208 1 1 0.0313957 -0.00596007 0.0177361 0 0 0 -0.00183193 -0.000517408 -0.0016663 -0.00336822 -0.00432249 0.00202327 0.185585 -0.888315 -0.442881 0.004 300 0 
92 1 1 0.0450966 -0.00930709 0.0172192 0 0 0 -0.000333117 0.000378811 0.000560253 -0.00105269 -0.00224406 -0.00134109 -0.333795 0.262453 0.0974786 0.004 300 0 
192 1 1 -0.0460802 -0.000791786 0.0176113 0 0 0 0.00105836 0.00238703 0.00635307 -0.00116915 0.00259915 0.00172323 0.489221 0.0700979 0.514202 0.004 300 0 
462 1 1 -0.0272426 -0.0017432 0.0172675 0 0 0 -0.000598024 0.000299329 0.000128349 -0.00258282 0.00184367 -0.00701733 -0.733041 0.837608 -0.39078 0.004 300 0 
450 1 1 -0.0127888 -0.000722061 0.0182811 0 0 0 -0.00267985 -0.00201027 0.00148329 -0.00349385 -0.00598228 0.00255232 0.469871 1.72773 0.025582 0.004 300 0 
111 1 1 -0.0056067 -0.00406152 0.0190248 0 0 0 0.00217819 0.00401972 -0.000146938 -0.00534175 -0.00387371 0.00720917 -2.01801 -0.178946 1.97388 0.004 300 0 
622 1 1 0.000950831 -0.00102978 0.0157102 0 0 0 0.00210442 0.00027894 -0.00132733 -0.00173553 -0.00325403 -0.000739485 -0.948338 -0.621213 -1.22205 0.004 300 0 
106 1 1 0.00820668 -0.00418663 0.0165852 0 0 0 0.00395564 0.00623311 0.00914352 0.00110542 0.0031956 0.003105 -3.13562 0.43021 1.84924 0.004 300 0 
651 1 1 0.0259256 -0.000213107 0.0173586 0 0 0 0.00598407 0.00573572 0.00160483 -0.00465825 -0.00394984 -0.00379323 0.864672 0.997582 -2.26191 0.004 300 0 
133 1 1 0.0389572 -0.00370592 0.0166646 0 0 0 -0.00154333 7.68297e-05 0.00111357 0.00364251 -0.0103128 0.00487213 1.31321 0.282765 0.531584 0.004 300 0 
164 1 1 0.0460155 -0.00187502 0.0198581 0 0 0 -0.00104536 -0.000890192 0.00297943 0.0010758 -0.00366644 0.0034686 1.14458 0.566937 0.463064 0.004 300 0 
127 1 1 -0.00217459 -0.0460578 0.0238109 0 0 0 -0.00383265 0.000347167 0.00620016 0.00371234 -9.71851e-05 -0.00191881 1.3671 -0.195691 1.12846 0.004 300 0 
126 1 1 -0.0154227 -0.0434112 0.0209167 0 0 0 -0.00544404 -0.000371701 0.000593002 0.00726672 0.00192141 -0.00644802 -0.586097 0.362502 0.43052 0.004 300 0 
143 1 1 0.00414896 -0.0413665 0.0229766 0 0 0 -0.00272671 -0.000968794 -0.00328124 0.00455787 -0.00117471 -9.38715e-05 0.014153 -0.436687 -2.53306 0.004 300 0 
110 1 1 -0.0273687 -0.0370396 0.0237604 0 0 0 -0.00097396 0.00139221 0.0148866 -0.00295938 0.000526957 -0.00129728 -0.517258 0.075118 1.08484 0.004 300 0 
371 1 1 -0.00703595 -0.0398502 0.0233751 0 0 0 -0.00645069 -0.00144527 0.00514635 0.00482152 0.00478508 -0.00276007 -0.352209 -1.58659 -0.375185 0.004 300 0 