ITEM: TIMESTEP
24000
ITEM: NUMBER OF ATOMS
890
ITEM: BOX BOUNDS mm mm mm
-0.05 0.05
-0.05 0.05
0 0.15
ITEM: ATOMS id type type x y z ix iy iz vx vy vz fx fy fz omegax omegay omegaz radius f_Temp[0] f_heatFlux[0] 
59 1 1 -0.000715523 -0.0460982 0.00395594 0 0 0 -1.10638e-05 1.11047e-05 4.51187e-06 -1.92363e-06 9.28662e-07 1.41339e-05 0.000582487 -0.0032742 0.0015752 0.004 501.926 11.5876 
170 1 1 -0.0173498 -0.0426414 0.003973 0 0 0 -7.03394e-06 2.53931e-06 4.02982e-06 3.10806e-06 -4.24253e-06 -1.45336e-06 0.00421542 0.00349511 -0.00292004 0.004 321.283 7.30981 
15 1 1 -0.00975014 -0.0449638 0.00393393 0 0 0 -1.61335e-05 -3.38517e-06 1.98407e-06 5.50122e-06 5.33184e-06 -2.52019e-06 0.000345981 -0.00470519 0.00171216 0.004 352.422 11.2127 
116 1 1 0.00648764 -0.0428197 0.00395864 0 0 0 -1.94248e-06 6.39473e-06 8.69632e-06 -5.41169e-06 -5.65235e-06 -1.70292e-06 -0.000504016 0.000965023 -0.00401069 0.004 660.562 -6.74291 
158 1 1 0.0143627 -0.0437626 0.00389976 0 0 0 -5.94053e-06 3.32704e-06 9.27404e-06 -5.77034e-06 3.94815e-06 -2.65607e-06 -0.000780441 -0.00119403 0.000863365 0.004 748.976 -11.102 
98 1 1 0.021678 -0.0406527 0.00394257 0 0 0 -4.29607e-06 2.43272e-06 8.61084e-06 -8.52499e-06 4.6735e-06 6.77309e-06 0.0011152 -0.000530296 0.000561178 0.004 784.367 -6.30985 
169 1 1 -0.0244315 -0.0390659 0.00391423 0 0 0 -6.13369e-06 3.06696e-05 3.05755e-05 -1.85834e-05 -2.527e-06 5.75482e-06 -0.000605394 -0.00185918 0.00222419 0.004 305.861 2.96051 
89 1 1 -0.0118119 -0.0369235 0.00395457 0 0 0 -1.95569e-05 1.08516e-05 1.30561e-05 -2.385e-05 1.15123e-05 8.79046e-06 8.90347e-05 0.00126675 0.00218849 0.004 356.743 9.78099 
152 1 1 -0.0041834 -0.0390223 0.00390514 0 0 0 -2.16406e-05 1.73038e-05 1.46748e-05 -6.92562e-06 1.06865e-05 1.28626e-05 3.43233e-05 -0.00286435 0.00175008 0.004 451.801 8.52476 
23 1 1 0.0153483 -0.0358821 0.00391121 0 0 0 -6.94347e-07 4.77652e-06 1.44028e-05 -1.73183e-05 1.09746e-06 8.83585e-06 0.000757959 0.000591407 -0.00138461 0.004 763.585 -10.8989 
118 1 1 -0.0307532 -0.0342397 0.00392722 0 0 0 -9.17033e-06 3.33324e-05 1.99426e-05 -1.10494e-05 -3.34704e-05 6.5851e-06 -0.0043802 -0.00145359 0.00140953 0.004 300.956 0.698592 
30 1 1 -0.0188787 -0.0333717 0.0039527 0 0 0 -1.40481e-05 3.56789e-05 4.78493e-05 -4.52434e-05 7.84733e-07 -3.94047e-06 -0.0027565 0.000808701 -0.00494591 0.004 314.412 4.81491 
215 1 1 -0.00603626 -0.0313238 0.00390653 0 0 0 -1.92249e-05 2.68373e-05 1.24782e-05 2.93853e-06 -1.2964e-06 -9.94379e-07 -0.00358771 -0.00538014 -0.00714089 0.004 408.048 13.3831 
74 1 1 0.00184145 -0.0338193 0.00390669 0 0 0 -1.15909e-05 1.20644e-05 1.67808e-05 -1.57631e-05 9.1948e-06 1.0015e-05 -0.00166628 -0.000873506 -0.00653867 0.004 565.913 -4.3905 
24 1 1 0.00917859 -0.0308342 0.00392025 0 0 0 -4.41273e-06 -2.93224e-06 1.85563e-05 -1.30156e-05 3.11258e-06 5.25368e-06 -0.000402344 2.69165e-05 0.00149676 0.004 710.044 -13.3209 
198 1 1 0.0259423 -0.0339524 0.00395546 0 0 0 -7.57069e-06 1.07937e-05 6.92887e-06 -1.27282e-05 1.73904e-05 4.52012e-06 -0.00277593 -0.001079 -0.000244806 0.004 795.924 -2.44034 
161 1 1 0.0335301 -0.0316074 0.00391355 0 0 0 -3.49815e-06 1.78692e-06 5.70543e-06 -1.10308e-05 8.1078e-06 4.45797e-06 0.000254472 5.65877e-06 -0.000585955 0.004 799.053 -0.751064 
8 1 1 -0.0322699 -0.0264156 0.00398405 0 0 0 3.77455e-06 5.14151e-05 9.20577e-06 -3.24759e-05 -5.54953e-05 -1.80751e-06 -0.00591049 -0.000616404 -0.00319164 0.004 300.668 0.507873 
12 1 1 -0.0244142 -0.0276959 0.00386434 0 0 0 6.30027e-07 4.02546e-05 2.92184e-05 -4.70061e-05 -3.47176e-06 -1.34658e-05 -0.01194 0.000126252 0.000877169 0.004 303.999 2.16076 
188 1 1 -0.0131742 -0.0277762 0.00396585 0 0 0 2.58956e-06 4.23549e-05 3.42007e-05 -4.082e-05 -1.85602e-05 -2.64533e-05 -0.00365104 0.00723332 0.00155339 0.004 323.817 7.40795 
77 1 1 -0.000100241 -0.0260809 0.0038941 0 0 0 4.50948e-06 1.2814e-05 3.30598e-05 3.01809e-06 9.79534e-06 -1.56111e-05 0.000404344 -0.000529793 0.000697219 0.004 529.821 3.6046 
113 1 1 0.0165643 -0.0280203 0.00388653 0 0 0 -8.47118e-06 6.45619e-06 1.95387e-05 -1.17428e-05 -2.43603e-07 2.60651e-07 -0.00147948 -0.0016508 0.00366904 0.004 771.754 -8.89073 
183 1 1 0.0384541 -0.0253742 0.00393846 0 0 0 -2.82129e-07 -8.98457e-07 7.18136e-06 -8.09939e-06 6.94845e-06 3.85256e-06 0.000436239 0.000688734 -0.00029187 0.004 799.796 -0.20113 
162 1 1 -0.0396311 -0.023418 0.00390783 0 0 0 4.43511e-06 1.78985e-05 4.02897e-06 1.05496e-06 -2.62652e-05 1.1969e-06 -0.00310106 0.000475639 0.00752458 0.004 300.109 0.108616 
53 1 1 -0.027206 -0.0202485 0.00395166 0 0 0 4.62368e-05 7.93367e-06 1.44342e-05 -3.78614e-05 -2.10362e-05 1.42952e-05 0.00573264 0.00846129 -0.0141233 0.004 301.58 1.05495 
148 1 1 -0.0187584 -0.0220641 0.00393812 0 0 0 -1.31139e-05 3.71956e-05 3.07197e-05 -2.89528e-05 -2.89662e-06 -2.36341e-05 -0.00550595 -0.00264296 0.00445962 0.004 308.909 4.11791 
195 1 1 -0.00727811 -0.0215499 0.00394565 0 0 0 2.38621e-05 4.00487e-05 3.94898e-05 -4.17482e-05 -5.63861e-05 -5.71497e-05 -0.00730848 0.00345726 0.0312415 0.004 368.817 14.1982 
179 1 1 0.00736625 -0.0231031 0.0039427 0 0 0 -8.47443e-06 -2.58805e-06 3.31689e-05 2.29965e-05 5.30925e-06 -8.64014e-06 0.00315725 -0.00202738 -0.000489011 0.004 717.61 -15.0433 
95 1 1 0.0148506 -0.02031 0.00393208 0 0 0 -4.6463e-06 -5.52957e-06 3.1609e-05 2.87487e-06 -1.30572e-06 -1.91609e-05 0.00144289 0.000591069 -0.00498351 0.004 768.617 -9.305 
76 1 1 0.0230028 -0.0233057 0.0039747 0 0 0 -4.42003e-06 6.02681e-06 1.36472e-05 -1.34154e-05 1.77136e-05 -5.95446e-06 -0.00182126 -0.00131612 -0.00406227 0.004 795.974 -2.22423 
100 1 1 0.0325586 -0.0200896 0.00388593 0 0 0 2.92889e-06 -2.89727e-06 2.11835e-05 -5.87952e-06 1.73016e-05 9.20154e-06 0.00133584 0.000997061 0.000375855 0.004 799.391 -0.493903 
65 1 1 -0.0430742 -0.0162802 0.00393146 0 0 0 -3.84653e-06 -1.92576e-06 -7.6477e-06 2.47181e-05 3.21095e-05 1.02487e-05 -0.000920199 -0.00281925 0.00136236 0.004 300.034 0.0388829 
102 1 1 -0.0351583 -0.0155177 0.00394452 0 0 0 3.53334e-05 3.00156e-05 1.75775e-05 1.14465e-05 6.02393e-07 3.99884e-06 -0.012293 0.00333915 0.00303008 0.004 300.218 0.203382 
213 1 1 -0.0132588 -0.0162738 0.00397364 0 0 0 -1.16931e-05 1.46464e-05 1.52666e-05 -1.5237e-05 -1.07756e-05 -1.27065e-05 -0.00511998 -0.00344064 -0.0197621 0.004 319.268 7.39538 
10 1 1 0.00114838 -0.0182523 0.00475006 0 0 0 -1.31892e-05 -1.70354e-06 5.20176e-05 6.84287e-05 1.26213e-05 -4.21587e-05 -0.00150432 0.000878825 0.00225674 0.004 591.723 -7.39653 
5 1 1 0.00879786 -0.0152553 0.00390316 0 0 0 1.24638e-06 -5.48391e-06 4.75922e-05 2.6037e-05 1.03871e-05 -2.75889e-05 -0.00253834 0.00307289 0.00306916 0.004 719.57 -11.7472 
96 1 1 0.0211693 -0.0155242 0.00395649 0 0 0 1.06501e-05 -2.31554e-05 2.8349e-05 -1.28849e-05 4.48873e-06 -4.27441e-06 0.00616381 0.00228921 -0.000310786 0.004 793.46 -3.16038 
167 1 1 0.0421923 -0.0183683 0.00392112 0 0 0 -1.87559e-06 -1.4341e-06 6.54019e-06 -6.98268e-06 7.71249e-06 -4.03678e-07 -0.00025909 -0.000144825 -4.70805e-05 0.004 799.971 -0.0347628 
124 1 1 -0.029011 -0.0104715 0.00394795 0 0 0 6.17055e-05 -5.09066e-06 -2.70509e-05 1.78379e-05 -2.49489e-05 7.30588e-06 0.00372856 0.0134718 -0.00799984 0.004 301.275 0.909525 
220 1 1 -0.021776 -0.0144542 0.00398047 0 0 0 8.77054e-05 -2.19001e-05 -7.87907e-07 1.14389e-05 -4.37188e-05 6.29189e-06 0.00954064 0.0147311 0.00552505 0.004 306.711 3.07216 
144 1 1 -0.00535521 -0.0138037 0.00388186 0 0 0 1.29031e-05 2.96853e-05 4.95762e-05 3.87692e-05 -1.81588e-05 -3.65482e-05 -0.00154505 0.00428781 -0.0147765 0.004 456.047 9.66912 
26 1 1 0.00255569 -0.0104629 0.0039058 0 0 0 1.87356e-05 3.3275e-06 5.35902e-05 2.66351e-05 -1.59758e-05 -3.92148e-05 0.001332 0.00283757 -0.00813737 0.004 595.479 -5.3218 
194 1 1 0.0287352 -0.013103 0.0039308 0 0 0 8.12679e-06 -1.60317e-05 3.20941e-05 -1.63515e-05 2.55334e-05 2.12676e-06 0.00326722 0.000881273 -2.39748e-05 0.004 798.845 -0.811207 
37 1 1 0.0366701 -0.0122308 0.00393305 0 0 0 -1.40248e-07 -2.25062e-06 3.16491e-05 -1.73642e-05 1.50156e-05 -2.70358e-08 -0.00085999 -0.000317704 0.00236411 0.004 799.888 -0.108222 
219 1 1 0.0447285 -0.0108715 0.00390889 0 0 0 -1.25703e-06 -2.98324e-06 4.63014e-06 -1.32556e-06 -4.47024e-08 -3.70527e-06 -9.94779e-05 9.22404e-06 -0.000113659 0.004 799.995 -0.00699919 
636 1 1 -0.0451997 -0.00864274 0.00391776 0 0 0 2.77966e-05 -1.18031e-06 -1.62731e-05 -1.71416e-05 5.00366e-05 8.21784e-06 -7.29692e-05 0.00402092 -0.0132875 0.004 300.007 0.00913065 
39 1 1 -0.0161467 -0.00885095 0.00388998 0 0 0 4.22025e-05 2.34599e-05 1.1152e-05 -1.38987e-06 -4.03832e-05 -9.40121e-06 -0.00097663 0.00407769 0.00804605 0.004 330.032 7.79695 
171 1 1 -0.00395989 -0.00597817 0.00392059 0 0 0 3.37268e-05 2.55809e-05 3.90475e-05 1.5066e-05 -1.70096e-05 -3.27411e-05 -0.00631131 0.00372699 0.00473824 0.004 466.117 10.0089 
200 1 1 0.0146298 -0.00986519 0.00396382 0 0 0 5.59285e-07 -2.91286e-05 3.73367e-05 1.14196e-05 1.2226e-05 -2.59217e-05 0.00244308 -0.00229733 -0.00586555 0.004 773.356 -7.93696 
21 1 1 0.0222519 -0.00762162 0.00394337 0 0 0 7.78042e-06 -3.61956e-05 4.96459e-05 -2.08881e-05 2.04244e-05 -2.54641e-06 0.00694817 0.00096294 0.00243701 0.004 794.715 -2.66165 
17 1 1 0.0298456 -0.00520717 0.00394877 0 0 0 1.55435e-05 -2.42351e-05 3.62406e-05 -2.59465e-05 2.39881e-05 2.71495e-06 0.00350292 0.00361046 -0.00122023 0.004 799.091 -0.680812 
477 1 1 -0.0445831 -0.00071081 0.00396295 0 0 0 2.9173e-05 1.13638e-05 -1.2204e-05 -5.76929e-05 3.81952e-05 1.26507e-05 -0.000560949 0.00777295 0.021243 0.004 300.013 0.0149839 
140 1 1 -0.0352672 -0.00371822 0.00387262 0 0 0 3.09797e-05 2.79588e-05 9.74915e-06 1.38762e-05 4.14043e-05 -2.7937e-05 -0.00148996 0.00291658 -0.0101787 0.004 300.482 0.38418 
119 1 1 -0.0273891 -0.00269824 0.00396399 0 0 0 4.27191e-05 -9.25234e-06 8.16417e-06 3.68797e-05 -1.51805e-05 -3.18148e-05 0.00983075 0.00803756 0.00859722 0.004 303.022 1.76856 
207 1 1 -0.0194912 -0.00168713 0.00389531 0 0 0 1.7133e-05 2.24521e-05 -5.25529e-07 2.18933e-05 -2.03568e-05 -1.73298e-05 -0.00472568 0.00116626 -0.000940422 0.004 315.316 5.92354 
69 1 1 -0.0111573 -0.00264541 0.0039302 0 0 0 2.19966e-05 2.80718e-05 1.00435e-05 8.59799e-06 -8.55848e-06 -8.78267e-06 -0.00510638 0.000595946 -0.00344388 0.004 360.858 12.7211 
221 1 1 0.00874796 -0.00448982 0.00393213 0 0 0 2.02609e-05 -1.88302e-05 4.8031e-05 1.3189e-05 -1.96934e-05 -3.82009e-05 0.00978505 0.00208616 -0.00553764 0.004 735.226 -10.8909 
457 1 1 0.0163505 -0.00208059 0.00395935 0 0 0 2.4859e-05 -4.036e-05 4.03903e-05 -2.73214e-05 3.09897e-05 -6.66676e-06 0.00114527 0.00471902 -0.00120104 0.004 784.186 -6.19406 
155 1 1 0.0378912 -0.00224686 0.00393696 0 0 0 -2.57903e-06 -4.96834e-06 3.21241e-05 -1.24228e-05 1.21974e-05 -8.37759e-06 -0.00122813 -0.00353946 -0.0039814 0.004 799.884 -0.111894 
665 1 1 0.0459183 -0.00307626 0.00394261 0 0 0 -5.85948e-06 -4.23904e-06 9.54411e-06 3.79861e-06 -4.59622e-06 -2.69776e-06 0.0023163 -0.000619623 0.00163886 0.004 799.993 -0.0101989 
120 1 1 0.00918492 -0.0371092 0.0087692 0 0 0 8.34279e-06 -3.11332e-06 2.17103e-05 -3.72896e-05 1.33812e-05 1.41855e-05 0.00240085 0.000565902 0.0026985 0.004 716.351 -13.2628 
9 1 1 -0.0247147 -0.033359 0.00937617 0 0 0 -1.95256e-05 6.23324e-05 7.26371e-05 -5.95626e-05 -8.5713e-06 -1.59042e-07 0.00295195 -0.00533037 -0.000782055 0.004 303.691 2.14535 
101 1 1 -0.0188614 -0.0277191 0.00955141 0 0 0 -1.7625e-05 7.03326e-05 5.59577e-05 -5.61997e-05 1.31227e-05 -3.1354e-05 -0.0014372 -0.00751359 -0.00556607 0.004 309.427 4.40192 
48 1 1 0.0221999 -0.0293139 0.00920023 0 0 0 -1.71174e-06 7.63639e-06 2.5542e-05 -2.48289e-05 2.2303e-05 9.97558e-06 0.00497281 0.00218218 -0.000951491 0.004 790.149 -4.40806 
75 1 1 0.02936 -0.0261746 0.00787417 0 0 0 -4.91074e-07 -5.26191e-06 2.00689e-05 -2.44884e-05 2.72974e-05 8.18269e-06 0.00286663 0.000661988 -0.00130716 0.004 798.179 -1.18711 
46 1 1 -0.0327912 -0.0205808 0.00958352 0 0 0 4.44481e-05 7.50604e-05 7.19154e-05 -8.79779e-05 -7.11863e-05 -2.41491e-05 -0.00259651 0.00843962 -0.0208446 0.004 300.696 0.545452 
33 1 1 -0.0130339 -0.0220248 0.00949565 0 0 0 -5.45721e-06 7.62491e-05 4.69543e-05 -4.77438e-05 -8.94481e-05 -5.60116e-05 -0.0034709 0.00611901 0.017172 0.004 331.511 7.29151 
11 1 1 0.02689 -0.0187448 0.00924458 0 0 0 5.69244e-06 -2.14276e-05 4.13997e-05 -2.2102e-05 2.5806e-05 8.84695e-06 0.00502885 7.40479e-06 -0.00122927 0.004 797.505 -1.54952 
71 1 1 -0.0372752 -0.00954693 0.0087663 0 0 0 9.3571e-06 3.8285e-05 -2.1696e-05 4.86089e-05 6.28359e-05 5.40787e-05 0.00205575 -0.00861683 0.00513363 0.004 300.126 0.125607 
62 1 1 -0.0228082 -0.00771359 0.00814051 0 0 0 5.06404e-05 -2.08605e-07 -1.85137e-05 1.74909e-05 -2.53803e-05 -1.59486e-05 -0.00386969 -0.013552 0.00697316 0.004 306.967 3.28571 
19 1 1 -0.0097068 -0.00905618 0.00849084 0 0 0 5.4271e-05 5.92711e-05 4.92857e-05 1.09053e-05 -4.93781e-05 -4.23961e-05 -0.00412841 -0.00557724 -0.00314421 0.004 407.801 10.9174 
187 1 1 0.00796708 -0.00988209 0.00975762 0 0 0 0.00010257 5.18757e-06 5.53829e-05 -1.93207e-05 5.13301e-05 -6.42699e-05 -0.012158 0.0286313 -0.0120536 0.004 740.723 -14.2461 
157 1 1 0.0395816 -0.00751949 0.00963116 0 0 0 -1.00815e-05 -1.17786e-05 5.3059e-05 -1.95607e-07 1.01999e-05 -1.37529e-05 0.00508669 0.00237238 0.00287458 0.004 799.971 -0.03417 
18 1 1 0.00229098 -0.00404886 0.0085267 0 0 0 3.60783e-05 -3.22433e-06 8.80809e-05 4.81294e-05 -5.09062e-05 -6.80308e-05 0.000686161 0.00493287 0.00410082 0.004 589.951 -4.49194 
185 1 1 -0.00531146 -0.0457351 0.0104437 0 0 0 -1.35332e-05 1.44858e-05 8.31213e-07 -3.12648e-05 1.54102e-05 2.28285e-05 -0.00155536 0.00648786 0.00379609 0.004 438.969 9.36824 
83 1 1 0.0025674 -0.0459474 0.011266 0 0 0 -9.06988e-06 1.67476e-05 1.36051e-05 -2.89706e-05 2.36888e-05 2.16177e-05 0.00492475 -0.0102068 -0.00177373 0.004 607.636 -13.6349 
58 1 1 -0.0218568 -0.0405822 0.0112768 0 0 0 -1.60916e-05 5.54188e-05 5.16189e-05 -5.08989e-05 3.02004e-05 3.68155e-05 0.00285969 -0.00603612 0.0082304 0.004 306.25 3.44252 
105 1 1 -0.0135859 -0.043966 0.0108787 0 0 0 -2.18526e-05 8.59945e-06 -1.51442e-05 -6.41659e-05 2.89666e-05 -2.14052e-06 -0.00530717 -0.00541006 0.00685315 0.004 321.421 7.97501 
223 1 1 0.0103957 -0.0448674 0.0106705 0 0 0 -6.23363e-06 5.82947e-07 2.99869e-05 -3.04318e-05 1.63581e-05 -1.58585e-05 0.0047705 0.00513005 -0.000625345 0.004 713.329 -15.157 
217 1 1 0.0179433 -0.0424254 0.010828 0 0 0 -7.87062e-06 -3.86434e-06 2.50717e-05 -3.29981e-05 1.15387e-05 6.23666e-06 0.00622486 0.000477589 0.000758069 0.004 768.286 -9.89355 
6 1 1 -0.0162614 -0.0350312 0.0113112 0 0 0 -4.06029e-05 8.59276e-05 7.00908e-05 -8.69418e-05 7.03687e-05 2.55977e-06 -0.0041787 0.00286699 0.00104009 0.004 320.533 7.42054 
151 1 1 -0.00801296 -0.0382604 0.0108113 0 0 0 -3.68575e-05 3.41806e-05 1.19617e-05 -5.98414e-05 3.04845e-05 1.97487e-05 -0.000262863 -0.00240276 -0.00179171 0.004 381.867 12.6146 
2 1 1 0.000443988 -0.0383081 0.0102708 0 0 0 -8.53878e-06 2.81738e-05 2.67333e-05 -3.16766e-05 2.44766e-05 2.46504e-05 -0.00187944 0.00543273 0.000151847 0.004 550.148 -2.77297 
117 1 1 0.0249196 -0.0387267 0.0109176 0 0 0 -3.43874e-06 -4.00821e-06 1.81186e-05 -2.49353e-05 1.46501e-05 1.41431e-05 0.000959314 0.00177887 -0.000163272 0.004 791.669 -4.05085 
13 1 1 -0.0323455 -0.0327547 0.0115369 0 0 0 -1.42056e-05 5.16882e-05 4.05554e-05 -3.1459e-05 -5.08485e-05 1.54981e-05 0.00502323 -0.0011471 -0.000569471 0.004 300.883 0.692992 
193 1 1 -0.00982574 -0.0305006 0.0107683 0 0 0 -3.80568e-05 8.53262e-05 1.65387e-05 -5.35641e-05 2.15787e-06 -3.88782e-05 -0.00507296 0.00299307 -0.00067075 0.004 368.136 13.6391 
47 1 1 -0.00133751 -0.0305434 0.0103846 0 0 0 -1.19854e-05 2.88988e-05 3.29817e-05 -3.91745e-05 6.52702e-06 1.48225e-05 0.00256313 -0.00196371 0.00136554 0.004 514.958 5.5521 
153 1 1 0.00656467 -0.0300232 0.011366 0 0 0 3.88289e-06 9.68931e-06 4.76393e-05 -3.77414e-05 3.14389e-05 2.19847e-05 2.62775e-05 0.00205285 -0.00726643 0.004 671.328 -11.3678 
41 1 1 0.0148077 -0.0317915 0.0106539 0 0 0 7.64205e-06 -2.0357e-06 3.87989e-05 -3.49897e-05 2.61125e-05 1.24607e-05 0.0026935 0.00333996 0.0013483 0.004 766.972 -10.3488 
163 1 1 0.0311566 -0.0339183 0.0111114 0 0 0 -2.04813e-06 -6.39805e-06 1.2741e-05 -1.74317e-05 1.72041e-05 6.72503e-06 0.00296013 0.00184117 0.000594975 0.004 798.24 -1.18208 
214 1 1 -0.0375015 -0.0268265 0.0107139 0 0 0 -1.10807e-05 5.21672e-05 3.93513e-05 -1.55175e-05 -6.0768e-05 -7.8325e-06 0.00181198 -0.0148367 0.0099718 0.004 300.304 0.277906 
210 1 1 0.0364694 -0.0280972 0.0111134 0 0 0 -1.26011e-06 -6.03608e-06 1.69273e-05 -1.35854e-05 1.95478e-05 5.67403e-06 0.00190251 0.00117051 -0.00023995 0.004 799.67 -0.287387 
108 1 1 -0.0260915 -0.0246403 0.0109303 0 0 0 -1.2871e-05 6.20739e-05 4.19182e-05 -5.01592e-05 -3.78123e-05 -6.10362e-06 0.00725623 0.000426771 0.0126089 0.004 303.017 1.80472 
40 1 1 -0.00551107 -0.0238697 0.0113284 0 0 0 1.90941e-05 6.34135e-05 5.39132e-05 -5.47516e-05 -4.09834e-05 -7.57045e-05 0.00621651 -0.00689439 -0.0154388 0.004 432.868 10.3224 
55 1 1 0.00236207 -0.0232852 0.0108247 0 0 0 8.83942e-06 1.24954e-05 8.48336e-05 -1.07626e-05 2.15619e-05 -3.13767e-05 0.00514271 -0.00192988 0.0038564 0.004 603.236 -5.54574 
91 1 1 0.0120918 -0.0243837 0.0101855 0 0 0 -5.47359e-06 -5.82291e-06 6.22979e-05 7.40933e-06 2.89209e-05 -1.52384e-05 0.00365011 0.0014536 0.00264261 0.004 751.502 -12.4405 
112 1 1 0.0192793 -0.0205361 0.0105072 0 0 0 -3.62494e-06 -2.39495e-05 5.47233e-05 -5.64918e-06 2.03392e-05 -2.18546e-05 -0.00147932 0.0027986 0.00214538 0.004 786.494 -5.84205 
178 1 1 0.0318658 -0.0225254 0.0144788 0 0 0 6.13353e-07 -3.26047e-05 4.96627e-05 -3.14832e-05 4.20898e-05 9.84612e-06 0.00325085 -0.000951003 -8.20815e-05 0.004 799.428 -0.46244 
131 1 1 0.0407765 -0.0214683 0.0110513 0 0 0 8.13806e-07 -5.97132e-06 1.87122e-05 -1.27673e-05 2.22255e-05 8.05342e-06 0.00121666 0.00228977 0.00117057 0.004 799.928 -0.0782613 
160 1 1 -0.0414721 -0.0199398 0.0108131 0 0 0 -1.20999e-05 9.99939e-06 -4.0713e-06 3.72539e-05 7.73921e-06 6.41525e-06 -0.00269373 0.00022878 0.000330586 0.004 300.052 0.0586136 
43 1 1 -0.0361085 -0.0151004 0.0142598 0 0 0 1.06326e-05 0.000116278 3.09984e-05 -7.34327e-05 -4.9608e-05 6.8305e-07 -0.0165907 -0.0212171 0.0291737 0.004 300.345 0.2896 
4 1 1 -0.0270342 -0.0151182 0.010074 0 0 0 7.2103e-05 6.23481e-05 1.01767e-05 -6.32067e-05 -6.63486e-05 2.60381e-05 -0.0195926 -0.0132784 0.0124086 0.004 302.309 1.44474 
104 1 1 -0.0203009 -0.01923 0.0111976 0 0 0 7.63547e-06 7.88317e-05 6.19326e-05 -6.45372e-05 -6.18336e-05 7.69444e-07 0.00298529 -0.00101716 -0.0191854 0.004 309.877 4.18967 
20 1 1 -0.00745477 -0.0162217 0.0110956 0 0 0 5.59217e-05 5.94717e-05 8.42324e-05 -4.36585e-05 -6.22344e-05 -9.65726e-05 0.000740873 0.00516858 0.00352639 0.004 423.585 11.5556 
45 1 1 0.000824986 -0.0164513 0.0146047 0 0 0 2.98787e-05 1.22256e-05 0.00013568 6.16624e-06 -4.99798e-06 -5.02305e-05 0.00240775 0.00669026 -0.00266857 0.004 570.683 -5.32592 
159 1 1 0.00795153 -0.0177076 0.011347 0 0 0 1.11532e-05 5.61332e-06 0.00011681 1.62174e-05 2.55675e-05 -3.73687e-05 0.00340966 -0.00126111 -0.00649691 0.004 709.9 -11.6115 
136 1 1 0.0347931 -0.0163371 0.0104655 0 0 0 3.78322e-06 -2.3478e-05 5.78348e-05 -4.35654e-05 4.05873e-05 6.26159e-06 0.00637906 0.000972894 0.000923976 0.004 799.746 -0.238913 
177 1 1 -0.0443274 -0.0125288 0.0108105 0 0 0 -3.04769e-06 3.61682e-06 -3.48131e-05 2.51884e-05 3.47115e-05 9.91557e-06 -0.00191669 0.00106966 -0.00180163 0.004 300.024 0.0292658 
139 1 1 -0.0168209 -0.012109 0.0110439 0 0 0 6.74455e-05 7.74982e-05 4.80932e-05 -5.13487e-05 -8.77797e-05 -5.12868e-06 -0.0148279 -0.00437487 0.0107644 0.004 323.187 7.08726 
211 1 1 -0.00209548 -0.0104147 0.0103076 0 0 0 5.09547e-05 2.16281e-05 9.86602e-05 1.07159e-05 -3.68864e-05 -5.25409e-05 -0.000635811 -0.00147813 -0.00566872 0.004 512.626 2.13939 
54 1 1 0.0149154 -0.0138958 0.0108309 0 0 0 6.83112e-06 -3.87096e-05 8.35235e-05 1.0966e-05 2.21882e-05 -3.76605e-05 -0.00364833 0.0138357 -0.00542494 0.004 775.686 -7.80608 
84 1 1 0.0232719 -0.0118009 0.0106602 0 0 0 2.16012e-05 -6.06019e-05 8.07983e-05 -2.29445e-05 2.809e-05 6.20382e-06 0.00248747 0.00323027 0.00204271 0.004 796.222 -2.26152 
180 1 1 0.0438204 -0.0140997 0.0110465 0 0 0 -9.86843e-07 -2.34585e-06 1.72345e-05 -2.59815e-06 3.25235e-06 -3.08513e-06 -0.000816777 0.00198761 -0.0012433 0.004 799.989 -0.0143144 
103 1 1 0.0174439 -0.00636559 0.0105707 0 0 0 1.84114e-05 -7.56213e-05 9.21603e-05 -1.72646e-05 1.44723e-05 -1.35069e-06 0.00472706 -0.00219665 -0.00105004 0.004 786.456 -5.87035 
156 1 1 0.030889 -0.00946113 0.0106299 0 0 0 1.89044e-05 -4.34782e-05 7.18212e-05 -4.90366e-05 3.51811e-05 2.2067e-07 -0.000903648 5.856e-05 -0.00166307 0.004 799.176 -0.650416 
197 1 1 -0.045783 -0.00471119 0.0107572 0 0 0 2.85512e-05 5.30227e-06 -1.15185e-05 -2.84664e-06 4.90298e-05 1.02227e-05 0.00221692 -0.00805319 -0.00108867 0.004 300.01 0.0124244 
87 1 1 -0.0386056 -0.00381148 0.0141385 0 0 0 1.53614e-05 7.25084e-05 -6.8389e-05 -0.000114759 0.000190829 -9.04661e-05 -0.017469 0.0145713 0.0138496 0.004 300.068 0.0715375 
130 1 1 -0.0313595 -0.00387359 0.0107777 0 0 0 1.15734e-05 1.37047e-05 3.89729e-05 -0.000109458 -8.5391e-05 -9.2125e-05 -0.0125597 -0.0210351 -0.0195721 0.004 300.698 0.541185 
604 1 1 -0.0224596 -0.000300581 0.0110799 0 0 0 2.78941e-05 5.31657e-05 5.99849e-06 4.70885e-05 -9.738e-05 7.72312e-06 0.00387438 0.000666572 -0.0110331 0.004 311.474 4.60216 
146 1 1 -0.0155079 -0.00400699 0.0103916 0 0 0 3.11833e-05 5.44907e-05 1.17591e-05 -1.4799e-08 -8.07236e-05 -4.24663e-05 -0.00276459 -0.00268162 0.010665 0.004 341.851 9.65321 
57 1 1 -0.00517539 -0.00310593 0.0111957 0 0 0 3.88913e-05 2.04552e-05 9.16529e-05 4.37503e-05 -1.4621e-05 -7.61419e-05 0.0123136 -0.00359303 -0.0009847 0.004 465.789 9.28928 
493 1 1 0.0116955 -0.000874975 0.0103668 0 0 0 2.56124e-05 -8.65426e-05 0.00010504 -3.35064e-06 4.94159e-06 -2.81824e-05 -0.00575134 0.002227 -0.00221781 0.004 759.924 -11.2368 
31 1 1 0.0250483 -0.00405416 0.0104601 0 0 0 1.87793e-05 -6.79984e-05 8.02687e-05 -3.61284e-05 3.38845e-05 1.24955e-05 4.12208e-05 0.00519773 0.00198706 0.004 796.333 -2.19756 
588 1 1 0.0325997 -0.00174525 0.0105431 0 0 0 1.75912e-05 -4.49615e-05 6.63498e-05 -3.34999e-05 4.54752e-05 -2.25303e-06 0.00271132 -0.00297734 0.00273424 0.004 799.116 -0.688134 
63 1 1 0.045924 -0.00327878 0.0119253 0 0 0 2.3475e-06 -3.45418e-06 2.33083e-05 -1.09294e-05 -7.80575e-06 -1.11951e-05 -0.00476435 0.00467494 -0.00183092 0.004 799.983 -0.0208533 
107 1 1 -0.00850628 -0.0452731 0.0176769 0 0 0 1.82215e-05 1.59491e-05 1.75346e-05 -3.80972e-05 7.47029e-06 1.45975e-05 0.00261855 0.000377321 -0.00422444 0.004 407.14 13.5106 
222 1 1 -0.0014195 -0.0418102 0.0171127 0 0 0 1.2323e-05 3.68096e-05 3.82064e-05 -4.99633e-05 1.62088e-05 1.54411e-05 -0.00393146 -0.00633306 0.0110336 0.004 524.445 4.44987 
142 1 1 0.00615871 -0.0401389 0.0154209 0 0 0 6.91978e-06 2.79687e-05 3.99053e-05 -4.41756e-05 3.10537e-05 2.44468e-05 -0.00829483 8.01826e-05 -0.00722793 0.004 651.895 -9.49761 
172 1 1 0.0116014 -0.0446447 0.0189545 0 0 0 -5.68962e-06 1.60132e-07 2.993e-05 -3.36888e-05 2.58655e-05 1.20522e-05 0.00795059 0.000582623 -0.00104731 0.004 726.798 -14.2015 
109 1 1 0.0204198 -0.0412797 0.0183141 0 0 0 2.31645e-05 1.2489e-07 2.23474e-05 -4.09523e-05 2.59093e-05 -9.69924e-06 -0.00632111 0.0151489 -0.00140833 0.004 787.282 -5.53076 
150 1 1 -0.0273271 -0.0370832 0.0158762 0 0 0 -2.55036e-05 4.36896e-05 4.28199e-05 -4.0089e-05 -2.33079e-05 3.2373e-05 0.00131214 -0.00482283 0.00449135 0.004 302.87 1.82861 
38 1 1 -0.0197787 -0.037372 0.0182821 0 0 0 -7.34595e-06 7.74216e-05 7.19955e-05 -6.20926e-05 5.16693e-06 3.41449e-05 0.0145789 0.00636811 0.00678888 0.004 312.716 5.53321 
199 1 1 -0.0118544 -0.0370268 0.0176497 0 0 0 -1.12514e-05 7.771e-05 3.58191e-05 -8.09263e-05 1.58533e-05 2.74905e-05 -0.00115525 0.00874309 -0.0106605 0.004 336.631 10.57 
93 1 1 0.0137644 -0.037776 0.0156805 0 0 0 1.02684e-05 -7.41369e-06 5.091e-05 -6.14753e-05 3.40038e-05 1.6003e-05 -0.00125396 6.16076e-05 -0.00359653 0.004 750.845 -11.5968 
64 1 1 0.0280176 -0.0365093 0.0179285 0 0 0 4.19099e-05 -6.08306e-06 3.28857e-05 2.67159e-05 2.18193e-05 2.91696e-05 -0.000841869 0.0135208 -0.00511822 0.004 798.262 -1.23114 
22 1 1 -0.0327402 -0.032422 0.0194566 0 0 0 -3.84227e-05 4.73794e-05 3.68534e-05 1.67709e-06 -6.26503e-05 2.76002e-05 0.00164818 -0.00520423 0.0144749 0.004 300.81 0.638247 
174 1 1 -0.0224318 -0.0302105 0.0162616 0 0 0 -2.77888e-05 8.44777e-05 0.000124091 -4.70709e-05 -2.93135e-05 -2.0672e-05 -0.00444967 0.00496416 -0.000961142 0.004 306.981 3.7052 
32 1 1 -0.00428296 -0.0343968 0.0166771 0 0 0 -1.38805e-05 2.06517e-05 1.9416e-05 -8.31393e-05 -1.46544e-05 3.76082e-05 0.00124148 0.00161101 -0.00511419 0.004 456.733 12.6707 
128 1 1 0.00347469 -0.0331322 0.0179956 0 0 0 8.46933e-06 1.52894e-05 4.36947e-05 -6.29397e-05 1.41575e-05 6.52853e-05 0.00768924 -0.000190947 0.00584806 0.004 594.821 -3.14455 
88 1 1 0.0113687 -0.0304836 0.0177097 0 0 0 1.92855e-05 -2.93191e-05 7.3977e-05 -4.81567e-05 6.20898e-05 3.62353e-05 0.00558891 0.00142277 0.0022214 0.004 743.859 -11.954 
137 1 1 0.0208047 -0.0338186 0.0156332 0 0 0 1.25386e-05 -1.3301e-05 1.68322e-05 -6.96026e-05 1.99135e-05 -2.03791e-05 0.00346277 0.000301362 -0.0023402 0.004 793.903 -3.58353 
154 1 1 0.0339821 -0.0311387 0.018055 0 0 0 -1.00942e-07 -1.17639e-05 2.42777e-05 -1.02673e-05 2.73383e-05 7.21879e-06 0.000322955 0.0020653 0.00420274 0.004 799.447 -0.442776 
52 1 1 -0.031991 -0.0252343 0.0161623 0 0 0 -3.13026e-05 4.99915e-05 6.37838e-05 4.9587e-06 -0.0001165 1.61886e-05 0.00081683 0.00390171 -0.0119426 0.004 300.991 0.722756 
80 1 1 -0.00960093 -0.0265066 0.0175802 0 0 0 1.39693e-06 7.27112e-05 3.38254e-05 -6.07063e-05 9.0997e-07 -2.75835e-05 0.0106917 0.00421951 -0.0075341 0.004 374.327 13.2577 
125 1 1 -0.00117356 -0.0267002 0.0173739 0 0 0 -1.65977e-05 -2.51519e-06 9.38153e-05 -4.9253e-05 3.84982e-05 -9.3837e-06 0.0109212 -0.00309003 -0.00227066 0.004 505.355 10.2909 
72 1 1 0.0179272 -0.0264317 0.0156368 0 0 0 2.68581e-05 -2.32739e-05 6.26608e-05 -1.99497e-05 4.36891e-05 7.45691e-06 0.00464739 0.00780285 0.000977203 0.004 784.327 -6.46278 
34 1 1 0.0269648 -0.0287252 0.0154181 0 0 0 4.0971e-07 -2.97875e-05 4.16192e-05 -2.11078e-05 2.71623e-05 1.65985e-05 0.00447212 -0.00024275 -0.00113327 0.004 797.475 -1.5357 
218 1 1 -0.0395968 -0.0234663 0.0176915 0 0 0 -2.05499e-05 5.81177e-05 4.11114e-05 1.98853e-05 -5.45065e-05 1.51857e-05 -0.00709332 -0.0115286 0.0098594 0.004 300.132 0.127242 
70 1 1 -0.0247175 -0.0230257 0.0185783 0 0 0 -2.72511e-05 9.29753e-05 4.57896e-05 -2.62752e-05 -8.84519e-05 2.64345e-05 -0.0181687 -0.0030356 0.0027317 0.004 305.338 2.68593 
132 1 1 -0.0171323 -0.0242634 0.0164742 0 0 0 -1.94134e-05 9.45233e-05 4.92314e-05 -6.54021e-05 -2.24391e-05 2.7454e-06 -0.00972529 0.00658024 0.00482816 0.004 319.927 6.81255 
196 1 1 0.00716648 -0.0237892 0.0170599 0 0 0 1.45001e-06 -3.40296e-05 0.000131276 -2.58098e-05 6.98353e-05 1.44445e-05 0.00966029 0.000655459 -0.00354003 0.004 700.765 -11.9251 
362 1 1 0.0243873 -0.0214293 0.0170615 0 0 0 1.22359e-05 -6.5013e-05 0.00010915 -8.9229e-07 3.60325e-05 6.43994e-05 0.00492755 0.0172128 0.0055058 0.004 797.627 -1.48575 
49 1 1 0.0387627 -0.0248027 0.0179814 0 0 0 -3.30474e-06 -4.65764e-06 2.41571e-05 -9.15602e-06 2.46996e-05 5.36162e-06 -0.000726511 -0.000687147 -0.00177948 0.004 799.89 -0.11309 
173 1 1 -0.043119 -0.0163147 0.0177079 0 0 0 -2.5367e-05 2.55426e-05 -3.37954e-05 -5.18571e-05 6.1326e-06 3.15008e-05 -0.011401 -0.00405203 0.00990179 0.004 300.088 0.0885192 
50 1 1 -0.0295063 -0.0167657 0.0182812 0 0 0 -1.01487e-05 0.000120352 7.20843e-05 -9.34407e-05 -0.000173997 -5.77037e-05 0.038212 0.00297155 -0.0103139 0.004 301.864 1.16365 
202 1 1 -0.0134618 -0.0172166 0.0161106 0 0 0 4.39357e-05 7.20231e-05 6.44523e-05 -7.65464e-05 -7.26508e-05 -2.68807e-05 0.0195354 -0.00516488 -0.0233338 0.004 346.445 10.7723 
86 1 1 -0.00524868 -0.0199158 0.0183756 0 0 0 3.68299e-05 2.81628e-05 0.000135538 1.06198e-05 -1.59399e-05 -3.53676e-05 0.00398477 -0.00421611 -0.00324065 0.004 450.831 10.9737 
129 1 1 0.0138596 -0.0196297 0.0162859 0 0 0 1.14625e-05 -5.19246e-05 0.000123436 6.8368e-06 3.74614e-05 -1.09617e-06 0.0111381 0.00342124 -0.00131406 0.004 763.2 -9.23145 
82 1 1 0.02914 -0.0151359 0.0159324 0 0 0 -7.19955e-06 -5.83617e-05 9.1865e-05 -2.49991e-05 4.70783e-05 3.02541e-05 0.00718772 -0.0033809 -0.00162398 0.004 799.194 -0.639323 
1 1 1 0.0424682 -0.0178049 0.0178803 0 0 0 -8.69447e-06 -5.06199e-07 2.9533e-05 3.21692e-06 1.40743e-05 3.72093e-07 0.000858703 -0.000743192 0.00248719 0.004 799.964 -0.042045 
168 1 1 -0.0224797 -0.0136302 0.0164169 0 0 0 3.36583e-05 0.000106706 5.80119e-05 -0.000101471 -0.00011954 1.21302e-05 -0.000745079 0.00189938 -0.00680413 0.004 308.51 3.90205 
121 1 1 -0.0051491 -0.0120184 0.017457 0 0 0 3.10292e-05 2.90357e-05 0.000124533 -1.53061e-06 -3.70386e-05 -5.60758e-05 0.000116082 -0.0100058 -0.0024713 0.004 479.595 4.49518 
28 1 1 0.00814288 -0.0139813 0.0183178 0 0 0 -2.62276e-06 -5.97169e-05 0.000219748 1.95192e-05 -4.66941e-05 -4.20064e-05 0.0166362 -0.00631035 0.000561376 0.004 728.791 -14.4823 
42 1 1 0.0200406 -0.0148105 0.0172659 0 0 0 2.02889e-05 -8.10908e-05 0.000150689 1.74016e-05 3.07165e-05 5.04676e-05 0.00114537 2.74748e-06 -0.00317706 0.004 790.295 -4.10478 
60 1 1 0.037628 -0.0116471 0.016172 0 0 0 3.14192e-05 -4.88189e-05 9.43894e-05 -5.60231e-05 4.60814e-05 1.54889e-07 0.00438358 0.0132771 0.0028231 0.004 799.932 -0.072909 
135 1 1 -0.0452123 -0.00865105 0.0176761 0 0 0 -3.9034e-05 -3.46505e-05 -3.56516e-05 2.22948e-06 4.52017e-05 1.77269e-05 0.01655 -0.00717662 -0.0060467 0.004 300.018 0.0218503 
81 1 1 -0.037613 -0.00944819 0.0199383 0 0 0 -0.000101593 3.5379e-05 0.000150073 -8.16316e-05 -1.18895e-05 0.000123171 0.00258502 -0.0543768 0.0389552 0.004 300.089 0.0909905 