ITEM: TIMESTEP
43200
ITEM: NUMBER OF ATOMS
890
ITEM: BOX BOUNDS mm mm mm
-0.05 0.05
-0.05 0.05
0 0.15
ITEM: ATOMS id type type x y z ix iy iz vx vy vz fx fy fz omegax omegay omegaz radius f_Temp[0] f_heatFlux[0] 
59 1 1 -0.000715549 -0.0460982 0.00395598 0 0 0 1.30907e-07 1.03792e-07 8.76333e-08 5.95616e-08 -1.07769e-07 -9.36749e-08 1.78654e-05 -1.99613e-06 -2.40043e-05 0.004 540.091 0.296417 
170 1 1 -0.0173498 -0.0426414 0.00397301 0 0 0 1.07707e-07 5.91035e-08 3.55139e-08 9.39473e-08 -5.14587e-08 -8.98446e-09 -7.07751e-06 -5.38504e-06 -4.67182e-06 0.004 432.326 2.72554 
15 1 1 -0.00975016 -0.0449638 0.00393397 0 0 0 9.35383e-08 8.78988e-08 2.02193e-08 6.73917e-08 -8.0256e-08 -1.69417e-08 -2.36809e-05 1.95746e-05 6.66807e-06 0.004 464.315 2.22698 
116 1 1 0.00648761 -0.0428197 0.00395869 0 0 0 1.53627e-07 3.40165e-07 1.59866e-07 1.38851e-07 -1.54331e-07 -1.02256e-07 -6.12461e-05 1.03335e-05 2.85434e-05 0.004 601.339 -1.11988 
158 1 1 0.0143627 -0.0437625 0.00389981 0 0 0 7.12684e-08 1.86203e-07 9.86641e-08 1.30975e-07 -1.45103e-07 -1.43658e-07 1.92529e-06 8.17781e-06 -2.96861e-05 0.004 643.958 -1.98435 
98 1 1 0.0216779 -0.0406527 0.00394261 0 0 0 1.25813e-07 1.25169e-07 6.14048e-08 1.30642e-07 -1.02326e-07 -1.49701e-07 -2.22264e-06 1.86288e-05 -1.86587e-05 0.004 682.452 -2.56012 
169 1 1 -0.0244315 -0.0390659 0.00391427 0 0 0 1.05057e-07 3.28703e-08 -4.9696e-08 8.88704e-08 -6.20964e-08 -2.37117e-08 -1.37527e-05 1.13897e-05 -6.11581e-06 0.004 393.489 2.9633 
89 1 1 -0.011812 -0.0369235 0.00395462 0 0 0 2.26613e-07 1.72632e-07 1.42786e-08 2.00654e-07 -1.55336e-07 -3.79488e-08 -5.43098e-05 9.11755e-06 2.61751e-05 0.004 454.01 2.10821 
152 1 1 -0.00418342 -0.0390223 0.00390524 0 0 0 3.06876e-07 2.63698e-07 1.2768e-07 2.41091e-07 -2.11481e-07 -1.49916e-07 -3.91083e-05 2.2087e-05 -7.25434e-06 0.004 510.099 0.937544 
23 1 1 0.0153483 -0.035882 0.00391129 0 0 0 2.90383e-07 3.77913e-07 1.96776e-07 2.84355e-07 -2.57118e-07 -3.07043e-07 -4.41706e-05 5.87585e-05 -4.0369e-05 0.004 654.447 -2.13868 
118 1 1 -0.0307533 -0.0342397 0.00392725 0 0 0 1.23733e-07 -8.54114e-09 -4.65697e-08 1.13036e-07 -3.81756e-08 2.6133e-08 5.92119e-06 2.47696e-05 -1.45216e-05 0.004 363.255 2.99572 
30 1 1 -0.0188787 -0.0333717 0.00395275 0 0 0 2.42765e-07 6.94136e-08 -1.14529e-07 2.24787e-07 -2.29573e-07 -6.83251e-08 -2.48245e-05 2.43352e-05 -1.01809e-06 0.004 405.872 2.73049 
215 1 1 -0.00603631 -0.0313238 0.00390661 0 0 0 3.83968e-07 2.69122e-07 1.18634e-08 3.22092e-07 -2.8349e-07 -1.06446e-07 -7.38049e-06 -7.97299e-06 1.19798e-05 0.004 490.324 1.30527 
74 1 1 0.0018414 -0.0338192 0.0039068 0 0 0 4.26752e-07 3.91943e-07 1.15917e-07 3.8778e-07 -3.94281e-07 -1.77512e-07 -3.20713e-05 4.09704e-05 -2.17786e-05 0.004 556.666 -0.107963 
24 1 1 0.00917856 -0.0308342 0.00392034 0 0 0 4.36959e-07 5.1657e-07 2.42241e-07 4.48793e-07 -3.08458e-07 -1.90804e-07 -5.56003e-05 5.22351e-05 -4.10392e-07 0.004 621.067 -1.47301 
198 1 1 0.0259423 -0.0339524 0.00395551 0 0 0 2.05783e-07 2.35516e-07 1.9774e-07 3.34446e-07 -1.59878e-07 -2.27693e-07 3.44294e-06 5.17836e-05 -3.82307e-06 0.004 714.314 -2.80245 
161 1 1 0.0335301 -0.0316074 0.00391358 0 0 0 8.74133e-08 2.44776e-07 9.11719e-08 1.74292e-07 -1.93135e-07 -1.96326e-07 -2.81715e-05 2.09708e-05 -3.70972e-05 0.004 739.673 -2.75765 
8 1 1 -0.0322699 -0.0264156 0.00398405 0 0 0 1.8157e-07 4.89039e-08 -3.90572e-08 1.89285e-07 -4.00625e-08 6.06466e-08 -1.73184e-05 3.10153e-06 1.831e-05 0.004 353.956 2.77988 
12 1 1 -0.0244143 -0.0276959 0.00386439 0 0 0 3.34447e-07 1.13318e-07 -1.73916e-07 3.14843e-07 -1.55908e-07 5.00193e-08 -4.28289e-05 6.08819e-05 -2.3496e-05 0.004 380.216 2.81688 
188 1 1 -0.0131742 -0.0277762 0.00396589 0 0 0 4.12497e-07 1.01711e-07 -2.56509e-07 3.70861e-07 -4.11266e-07 -1.6631e-07 -3.37892e-05 3.29244e-05 -5.96173e-06 0.004 424.965 2.49829 
77 1 1 -0.000100242 -0.0260809 0.00389416 0 0 0 6.96677e-07 5.56928e-07 1.42528e-07 6.06049e-07 -4.29583e-07 2.0139e-09 -6.68389e-05 0.000127321 -2.53367e-05 0.004 543.211 0.15121 
113 1 1 0.0165643 -0.0280203 0.0038866 0 0 0 4.12085e-07 4.15974e-07 1.06044e-07 4.7935e-07 -3.12491e-07 -2.79285e-07 -2.08918e-05 4.59194e-05 -1.24531e-05 0.004 671.098 -2.27407 
183 1 1 0.0384541 -0.0253742 0.00393848 0 0 0 8.93024e-08 1.75075e-07 6.43105e-08 1.80527e-07 -1.49811e-07 -2.19226e-07 -9.43354e-06 1.45277e-05 -3.8193e-05 0.004 758.433 -2.50301 
162 1 1 -0.0396311 -0.023418 0.00390783 0 0 0 2.76771e-08 -4.2992e-08 -1.09184e-07 1.33709e-07 -3.65442e-08 2.03569e-08 8.45851e-06 4.20426e-06 -5.15097e-06 0.004 334.885 2.3634 
53 1 1 -0.027206 -0.0202486 0.00395168 0 0 0 2.71098e-07 1.25015e-07 -1.85188e-07 4.37692e-07 -1.99357e-07 7.61601e-08 -7.75012e-06 2.82996e-05 2.74304e-05 0.004 363.739 2.74365 
148 1 1 -0.0187584 -0.0220642 0.00393817 0 0 0 4.71758e-07 1.01844e-07 -3.12098e-07 5.49428e-07 -3.45396e-07 8.35822e-08 -1.83941e-06 6.98218e-05 2.19273e-06 0.004 403.174 2.71781 
195 1 1 -0.00727817 -0.02155 0.00394566 0 0 0 8.56149e-07 5.70661e-07 -3.65477e-08 8.3762e-07 -4.65348e-07 -1.74463e-07 -8.35386e-05 0.000179425 9.40693e-05 0.004 477.207 1.56941 
179 1 1 0.00736629 -0.0231031 0.00394274 0 0 0 5.48332e-07 6.68605e-07 3.89096e-07 7.79106e-07 -3.30976e-07 4.54355e-08 -7.49823e-05 6.57649e-05 -2.96607e-05 0.004 619.884 -1.48686 
95 1 1 0.0148506 -0.02031 0.00393212 0 0 0 4.72271e-07 5.41561e-07 1.67954e-07 7.47062e-07 -3.43537e-07 -3.12864e-07 -7.06605e-05 2.81096e-05 1.08402e-06 0.004 667.474 -2.20482 
76 1 1 0.0230028 -0.0233057 0.00397473 0 0 0 4.24365e-07 5.98394e-07 1.61752e-07 5.34362e-07 -2.53795e-07 -2.83973e-07 -7.13171e-05 4.05338e-05 3.42012e-05 0.004 720.098 -2.77363 
100 1 1 0.0325586 -0.0200895 0.00388596 0 0 0 3.20421e-07 5.60562e-07 2.23694e-07 5.02716e-07 -3.22846e-07 -4.9327e-07 -9.8635e-05 9.61763e-05 -2.3004e-05 0.004 749.877 -2.57898 
65 1 1 -0.0430742 -0.0162802 0.00393146 0 0 0 9.21249e-09 -3.22946e-08 -9.99025e-08 1.18897e-07 -5.63997e-08 6.93471e-08 1.7005e-08 -2.86498e-07 -5.5285e-07 0.004 325.951 2.05402 
102 1 1 -0.0351583 -0.0155178 0.0039445 0 0 0 1.22649e-07 3.83816e-08 -2.42259e-07 3.78895e-07 -2.3247e-07 1.03441e-07 5.86774e-06 3.49904e-05 3.5495e-05 0.004 337.726 2.30069 
213 1 1 -0.0132588 -0.0162738 0.00397365 0 0 0 3.90385e-07 2.60916e-07 -1.93817e-07 6.24787e-07 -4.12568e-07 2.09164e-08 -1.18218e-05 1.73621e-05 1.86154e-05 0.004 428.3 2.41042 
10 1 1 0.00114845 -0.0182524 0.00475004 0 0 0 8.39848e-07 8.51693e-07 1.92649e-07 9.55826e-07 -5.23309e-07 -1.56727e-07 4.90165e-05 -0.000103426 2.60909e-05 0.004 563.282 -0.353079 
5 1 1 0.0087979 -0.0152553 0.00390316 0 0 0 6.67524e-07 7.17518e-07 1.78627e-07 7.3163e-07 -4.23071e-07 -1.97218e-07 -0.00011575 0.000132946 -3.05687e-05 0.004 628.777 -1.61392 
96 1 1 0.0211693 -0.0155242 0.00395652 0 0 0 2.22319e-07 6.22135e-07 3.7939e-07 6.5947e-07 -2.82557e-07 -3.03541e-07 -2.21773e-05 -5.81554e-05 4.28986e-05 0.004 714.828 -2.6162 
167 1 1 0.0421923 -0.0183683 0.00392112 0 0 0 4.63848e-08 1.07376e-07 2.95668e-08 2.04292e-07 -1.37675e-07 -1.32222e-07 -1.851e-05 2.04039e-06 8.28867e-06 0.004 773.587 -2.12481 
124 1 1 -0.029011 -0.0104716 0.00394791 0 0 0 3.92468e-08 1.72636e-07 -1.46992e-07 6.71735e-07 -3.65551e-07 4.60428e-08 8.74727e-06 -1.00782e-05 -1.66918e-06 0.004 356.939 2.49417 
220 1 1 -0.0217759 -0.0144543 0.00398045 0 0 0 2.64165e-07 2.74321e-07 -7.08177e-08 6.28893e-07 -4.16262e-07 -6.09344e-09 -1.17269e-06 -1.68096e-06 -9.79808e-06 0.004 383.879 2.6226 
144 1 1 -0.00535517 -0.0138038 0.00388181 0 0 0 8.32211e-07 7.39845e-07 1.81879e-08 8.6815e-07 -5.52574e-07 -2.29338e-07 -9.49102e-05 0.000159928 -1.95418e-05 0.004 509.381 0.714946 
26 1 1 0.00255573 -0.0104629 0.0039057 0 0 0 7.36398e-07 9.39797e-07 5.42585e-08 7.95118e-07 -5.04462e-07 -3.18161e-07 -0.000191871 0.000104639 -1.26731e-05 0.004 567.294 -0.45527 
194 1 1 0.0287352 -0.013103 0.00393082 0 0 0 3.91084e-07 6.69064e-07 2.61779e-07 6.58196e-07 -3.23947e-07 -4.80141e-07 -9.21901e-05 8.33522e-05 -1.65779e-05 0.004 743.674 -2.58951 
37 1 1 0.0366701 -0.0122308 0.00393306 0 0 0 2.70301e-07 5.15315e-07 6.17759e-08 5.17344e-07 -2.46168e-07 -5.92184e-07 -0.000106985 3.41127e-05 2.56229e-05 0.004 767.508 -2.24547 
219 1 1 0.0447285 -0.0108715 0.00390888 0 0 0 1.64479e-08 1.01038e-07 2.50477e-09 1.28708e-07 -7.26879e-08 -7.0853e-08 -1.2425e-05 2.32098e-06 -6.2467e-06 0.004 780.54 -1.87171 
636 1 1 -0.0451997 -0.00864275 0.00391771 0 0 0 -8.36519e-08 -1.79169e-08 -1.36692e-07 1.14871e-07 -4.70186e-08 4.50092e-08 -3.68209e-06 -1.54734e-05 1.9281e-05 0.004 318.727 1.77012 
39 1 1 -0.0161466 -0.00885108 0.00388991 0 0 0 4.81497e-07 4.27211e-07 -2.52957e-07 7.60057e-07 -4.74752e-07 -1.90619e-09 -5.06666e-05 6.63798e-05 -6.2479e-06 0.004 420.361 2.13614 
171 1 1 -0.00395985 -0.00597828 0.00392048 0 0 0 6.72823e-07 7.74528e-07 -1.50296e-07 8.60255e-07 -5.04109e-07 -1.45483e-07 -6.95361e-05 5.77137e-05 2.67162e-05 0.004 513.6 0.591931 
200 1 1 0.0146298 -0.0098652 0.00396379 0 0 0 4.51907e-07 7.58776e-07 1.96101e-07 7.92683e-07 -4.08663e-07 -3.14922e-07 -5.58913e-05 5.17661e-06 5.37147e-05 0.004 673.099 -2.28572 
21 1 1 0.022252 -0.00762162 0.00394338 0 0 0 2.25898e-07 7.31797e-07 2.26703e-07 7.16641e-07 -3.16298e-07 -3.42497e-07 -0.000124657 -2.51885e-05 -4.19326e-05 0.004 717.484 -2.62049 
17 1 1 0.0298456 -0.00520717 0.00394876 0 0 0 2.77699e-07 6.6511e-07 6.62923e-08 6.89028e-07 -2.44296e-07 -6.18447e-07 -8.41049e-05 4.13217e-05 4.33297e-05 0.004 743.361 -2.59712 
477 1 1 -0.0445832 -0.000710814 0.00396286 0 0 0 -1.39424e-07 1.80884e-08 -1.77152e-07 1.60789e-07 -7.03709e-08 4.03231e-08 -2.52756e-07 -2.61807e-05 -1.08642e-05 0.004 317.768 1.69517 
140 1 1 -0.0352672 -0.00371827 0.00387249 0 0 0 2.52829e-08 1.77034e-07 -2.38755e-07 3.85118e-07 -2.74595e-07 1.25262e-07 -4.88932e-05 -2.03766e-06 6.59244e-05 0.004 338.138 2.13299 
119 1 1 -0.0273891 -0.00269833 0.00396392 0 0 0 1.41504e-07 2.55148e-07 -2.08264e-07 5.7553e-07 -4.01586e-07 1.28325e-07 -3.25936e-05 -1.43539e-05 -3.36879e-05 0.004 363.643 2.3595 
207 1 1 -0.0194911 -0.00168728 0.00389515 0 0 0 3.40653e-07 4.08971e-07 -3.77105e-07 7.20957e-07 -4.646e-07 1.54632e-08 -7.95223e-05 7.05718e-05 4.75944e-05 0.004 400.532 2.22783 
69 1 1 -0.0111573 -0.00264551 0.0039301 0 0 0 4.54354e-07 5.47384e-07 -2.79064e-07 7.73557e-07 -4.65685e-07 -6.87263e-08 -6.73379e-05 2.33459e-05 2.81795e-05 0.004 455.35 1.60132 
221 1 1 0.00874803 -0.00448988 0.00393203 0 0 0 5.22197e-07 9.10733e-07 1.2377e-07 8.33013e-07 -5.07777e-07 -1.45441e-07 -0.000159406 6.61663e-05 -6.30534e-05 0.004 637.512 -1.76839 
457 1 1 0.0163505 -0.0020806 0.0039593 0 0 0 2.33466e-07 6.81274e-07 7.44755e-08 7.87904e-07 -4.04399e-07 -1.96402e-07 -6.23061e-05 -1.23034e-05 4.17552e-05 0.004 684.214 -2.40422 
155 1 1 0.0378912 -0.00224685 0.00393694 0 0 0 8.28616e-08 4.66487e-07 1.45887e-07 5.8146e-07 -1.51441e-07 -5.61948e-07 -7.43469e-05 2.24932e-05 1.37423e-05 0.004 770.273 -2.07309 
665 1 1 0.0459183 -0.00307627 0.00394261 0 0 0 -2.85048e-08 1.05199e-07 3.38101e-08 2.70408e-07 1.42711e-08 -1.20732e-07 -3.09937e-06 -9.04065e-06 7.33141e-06 0.004 780.755 -1.82564 
120 1 1 0.00918486 -0.0371091 0.00876937 0 0 0 5.17403e-07 7.62756e-07 3.43259e-07 6.30037e-07 -4.66379e-07 -3.06723e-07 1.98171e-05 2.26583e-05 -4.32724e-05 0.004 622.388 -1.54797 
9 1 1 -0.0247147 -0.033359 0.00937625 0 0 0 3.73384e-07 9.97966e-08 -1.24242e-07 4.33493e-07 -2.1393e-07 4.77978e-08 1.36451e-05 2.88417e-05 -3.2945e-05 0.004 383.574 2.90785 
101 1 1 -0.0188615 -0.0277191 0.0095515 0 0 0 7.62577e-07 3.16192e-07 -4.16836e-07 7.50492e-07 -5.34156e-07 -5.43817e-08 -8.28578e-05 6.66724e-05 -6.16561e-05 0.004 401.052 2.70488 
48 1 1 0.0221998 -0.0293138 0.00920033 0 0 0 4.56518e-07 8.16577e-07 2.37553e-07 6.73215e-07 -4.12881e-07 -4.22033e-07 -0.000128811 -4.61622e-05 1.60114e-05 0.004 704.548 -2.60563 
75 1 1 0.02936 -0.0261745 0.00787423 0 0 0 4.09186e-07 7.32522e-07 3.26082e-07 5.64336e-07 -2.97087e-07 -4.31244e-07 3.51413e-05 -1.60368e-05 -4.70517e-05 0.004 736.619 -2.69741 
46 1 1 -0.0327912 -0.0205809 0.00958352 0 0 0 3.51017e-07 -6.77148e-08 -5.33694e-07 6.55519e-07 -2.36546e-07 1.03005e-07 1.83603e-05 -6.9179e-05 3.38858e-05 0.004 350.04 2.52436 
33 1 1 -0.013034 -0.0220249 0.00949571 0 0 0 9.66169e-07 4.81795e-07 -5.32886e-07 1.17554e-06 -7.50064e-07 -1.89323e-07 -5.38335e-05 6.70337e-05 6.57103e-05 0.004 429.562 2.33988 
11 1 1 0.02689 -0.0187448 0.00924465 0 0 0 6.06687e-07 1.05419e-06 4.34961e-07 1.15316e-06 -3.63427e-07 -7.18542e-07 2.53769e-05 -7.48022e-05 -1.43973e-05 0.004 732.339 -2.63926 
71 1 1 -0.0372751 -0.00954696 0.00876625 0 0 0 5.3522e-08 2.044e-08 -3.9234e-07 4.87363e-07 -2.80713e-07 1.78992e-07 4.76606e-05 -3.01473e-05 -1.61783e-05 0.004 330.779 2.07738 
62 1 1 -0.0228082 -0.00771372 0.00814041 0 0 0 4.73601e-07 4.98528e-07 -2.73797e-07 1.03531e-06 -6.40789e-07 1.08306e-07 -7.15719e-05 9.06503e-05 3.6739e-05 0.004 382.953 2.45164 
19 1 1 -0.00970674 -0.00905633 0.00849074 0 0 0 1.12033e-06 1.07322e-06 -2.48908e-07 1.53168e-06 -8.88185e-07 -6.48583e-08 -9.50225e-05 -1.78417e-05 6.83162e-05 0.004 478.554 1.1913 
187 1 1 0.00796707 -0.00988205 0.00975754 0 0 0 1.35822e-06 1.41518e-06 1.22409e-07 1.41181e-06 -7.94441e-07 -3.34202e-07 2.16873e-05 0.000121695 7.40417e-05 0.004 623.162 -1.70246 
157 1 1 0.0395817 -0.00751948 0.00963114 0 0 0 1.75518e-07 6.32842e-07 1.25908e-07 8.97599e-07 -2.11017e-07 -9.78723e-07 3.0843e-05 -1.88747e-05 -1.54466e-05 0.004 775.401 -1.99218 
18 1 1 0.0022911 -0.00404902 0.00852647 0 0 0 1.01336e-06 1.64399e-06 -1.56531e-08 1.49142e-06 -9.08163e-07 -3.69087e-07 7.41405e-06 -9.71496e-06 -2.31872e-05 0.004 565.889 -0.390902 
185 1 1 -0.00531148 -0.045735 0.0104438 0 0 0 2.64945e-07 1.88226e-07 4.78529e-09 2.54524e-07 -1.7369e-07 -1.28054e-07 -3.3512e-06 2.54196e-05 -2.91723e-05 0.004 504.775 1.16448 
83 1 1 0.00256736 -0.0459473 0.0112661 0 0 0 2.55459e-07 3.47837e-07 2.15877e-07 3.23165e-07 -2.71719e-07 -1.75428e-07 4.77428e-05 -5.7835e-05 1.33498e-05 0.004 562.844 -0.216419 
58 1 1 -0.0218568 -0.0405821 0.0112769 0 0 0 3.45557e-07 7.38147e-08 -1.69174e-07 2.84218e-07 -2.64555e-07 -6.70373e-08 -3.01557e-05 4.39156e-05 -5.28693e-05 0.004 398.134 2.89778 
105 1 1 -0.013586 -0.043966 0.0108788 0 0 0 2.37193e-07 1.777e-07 6.76057e-08 2.85935e-07 -1.44331e-07 -1.24402e-08 7.68643e-06 9.80038e-06 -1.32523e-05 0.004 446.012 2.76122 
223 1 1 0.0103957 -0.0448674 0.0106706 0 0 0 2.2751e-07 3.60248e-07 2.36423e-07 3.41963e-07 -2.71035e-07 -1.62117e-07 2.51375e-06 5.79382e-05 -4.9881e-05 0.004 616.09 -1.42331 
217 1 1 0.0179432 -0.0424253 0.0108281 0 0 0 1.97298e-07 3.23243e-07 -1.53672e-08 3.72871e-07 -2.85941e-07 -3.31957e-07 -6.6361e-05 2.37471e-05 -3.27895e-05 0.004 660.082 -2.26108 
6 1 1 -0.0162615 -0.0350311 0.0113114 0 0 0 6.30581e-07 3.07292e-07 -1.38565e-07 6.27078e-07 -5.1484e-07 -5.58526e-08 5.66815e-05 -3.90163e-05 6.50449e-05 0.004 422.704 2.53574 
151 1 1 -0.00801308 -0.0382603 0.0108115 0 0 0 5.81243e-07 4.47216e-07 6.57476e-08 5.64144e-07 -4.02057e-07 -1.50297e-07 -8.80015e-06 3.19618e-05 -1.69014e-05 0.004 477.76 1.68972 
2 1 1 0.000443917 -0.038308 0.010271 0 0 0 5.72503e-07 7.2504e-07 2.45993e-07 6.94264e-07 -6.50892e-07 -2.84357e-07 -7.92095e-05 2.04869e-05 -2.35199e-05 0.004 549.462 0.0516549 
117 1 1 0.0249196 -0.0387267 0.0109177 0 0 0 6.25655e-08 3.93112e-07 3.34639e-08 3.14484e-07 -2.82869e-07 -2.78381e-07 -3.66549e-05 -5.92972e-05 1.71717e-05 0.004 701.32 -2.72622 
13 1 1 -0.0323455 -0.0327547 0.011537 0 0 0 1.99733e-07 -5.45462e-08 -1.55437e-07 2.98978e-07 -1.10128e-07 8.99363e-08 -1.20447e-05 -1.45969e-05 2.26375e-05 0.004 360.924 2.85549 
193 1 1 -0.0098258 -0.0305006 0.0107685 0 0 0 8.75261e-07 6.35384e-07 -9.54587e-08 9.04624e-07 -6.88245e-07 -1.04079e-07 -5.92399e-05 9.66647e-05 -6.92959e-05 0.004 468.065 1.72181 
47 1 1 -0.00133758 -0.0305434 0.0103848 0 0 0 1.06687e-06 8.7546e-07 1.64508e-07 1.07719e-06 -7.80369e-07 -5.78749e-08 1.77915e-05 2.38504e-06 -5.9086e-05 0.004 538.981 0.246819 
153 1 1 0.00656462 -0.0300231 0.0113662 0 0 0 1.16389e-06 1.23536e-06 5.21193e-07 1.26209e-06 -7.9686e-07 -3.5458e-07 -3.58625e-05 2.21729e-05 -2.06307e-05 0.004 600.955 -1.09535 
41 1 1 0.0148076 -0.0317915 0.010654 0 0 0 7.86736e-07 1.05209e-06 4.27771e-07 9.66912e-07 -6.84713e-07 -5.04191e-07 -5.27023e-05 5.35072e-05 -2.64012e-05 0.004 659.804 -2.17778 
163 1 1 0.0311565 -0.0339183 0.0111114 0 0 0 5.24965e-08 4.95421e-07 2.16834e-07 3.1847e-07 -3.11253e-07 -3.20604e-07 -1.69315e-06 8.67676e-06 -5.23931e-05 0.004 734.817 -2.7557 
214 1 1 -0.0375015 -0.0268265 0.010714 0 0 0 1.96634e-07 -7.83605e-08 -3.09046e-07 3.29638e-07 -8.54539e-08 6.58433e-08 -3.98432e-05 9.01662e-05 -4.44464e-05 0.004 344.025 2.52191 
210 1 1 0.0364694 -0.0280971 0.0111135 0 0 0 1.06992e-07 3.74265e-07 2.03265e-07 3.37549e-07 -2.41019e-07 -3.71205e-07 4.67059e-06 3.48246e-05 -2.55804e-05 0.004 757.303 -2.49652 
108 1 1 -0.0260915 -0.0246404 0.0109305 0 0 0 7.53456e-07 2.5519e-07 -6.39426e-07 8.37879e-07 -3.26543e-07 1.25181e-07 5.07842e-07 1.25147e-05 6.01574e-05 0.004 371.805 2.66942 
40 1 1 -0.00551113 -0.0238697 0.0113285 0 0 0 1.33529e-06 1.02908e-06 -2.40572e-07 1.53013e-06 -9.09727e-07 -1.94267e-07 1.6646e-05 -0.000120869 2.99506e-05 0.004 499.36 1.01711 
55 1 1 0.00236208 -0.0232851 0.0108249 0 0 0 1.4068e-06 1.50335e-06 4.06041e-07 1.71552e-06 -1.00154e-06 -2.09129e-07 -8.38001e-05 -1.86583e-07 5.44331e-05 0.004 572.531 -0.488507 
91 1 1 0.0120918 -0.0243837 0.0101856 0 0 0 1.21765e-06 1.29613e-06 4.92691e-07 1.46846e-06 -7.18124e-07 -5.20114e-07 -5.73195e-05 0.000161131 -5.8325e-05 0.004 644.786 -1.91813 
112 1 1 0.0192794 -0.0205361 0.0105073 0 0 0 1.12861e-06 1.37419e-06 4.00009e-07 1.52416e-06 -6.55917e-07 -9.21968e-07 -0.000133072 0.000159473 -3.58479e-05 0.004 689.484 -2.49534 
178 1 1 0.0318658 -0.0225253 0.0144789 0 0 0 2.85938e-07 1.00011e-06 3.98591e-07 1.15124e-06 -4.35683e-07 -8.02482e-07 -6.87412e-05 -2.80709e-06 2.84515e-05 0.004 751.547 -2.55666 
131 1 1 0.0407765 -0.0214683 0.0110513 0 0 0 8.71514e-08 3.02289e-07 1.28814e-07 4.29716e-07 -2.90327e-07 -3.75454e-07 -2.20097e-07 2.80622e-05 -4.28931e-05 0.004 769.236 -2.22238 
160 1 1 -0.0414721 -0.0199398 0.0108131 0 0 0 6.86788e-08 -5.64505e-08 -2.33001e-07 2.67105e-07 -8.50594e-08 7.09686e-08 -1.10111e-06 8.28911e-06 2.22083e-05 0.004 328.907 2.14964 
43 1 1 -0.0361086 -0.0151005 0.0142598 0 0 0 2.06769e-07 -2.39547e-07 -8.88545e-07 7.3518e-07 -3.77713e-07 2.42875e-07 3.63109e-05 0.000102489 2.63089e-06 0.004 337.073 2.19968 
4 1 1 -0.0270342 -0.0151184 0.010074 0 0 0 5.09406e-07 2.19065e-07 -5.39494e-07 1.19822e-06 -4.62814e-07 8.40979e-08 -1.16781e-05 0.000152554 5.02142e-05 0.004 365.988 2.59262 
104 1 1 -0.020301 -0.0192302 0.0111977 0 0 0 9.48665e-07 4.77317e-07 -7.66157e-07 1.25914e-06 -7.92108e-07 1.26295e-07 -6.78392e-05 1.48759e-05 -1.15389e-05 0.004 395.095 2.54847 
20 1 1 -0.00745481 -0.0162218 0.0110955 0 0 0 1.60312e-06 1.324e-06 -1.20274e-08 1.79781e-06 -1.02292e-06 -2.19976e-07 1.73399e-05 1.77653e-05 -4.37516e-05 0.004 492.271 1.02827 
45 1 1 0.000825048 -0.0164513 0.0146047 0 0 0 1.83506e-06 2.32494e-06 2.06575e-07 2.34479e-06 -1.43884e-06 -4.53397e-07 -5.17505e-05 1.15701e-06 -5.62028e-05 0.004 556.497 -0.202414 
159 1 1 0.00795158 -0.0177076 0.0113471 0 0 0 1.5865e-06 1.76255e-06 5.82563e-07 1.83944e-06 -9.96759e-07 -5.0217e-07 -9.95022e-05 2.60264e-05 -4.64783e-05 0.004 622.937 -1.49152 
136 1 1 0.0347931 -0.0163371 0.0104656 0 0 0 3.63031e-07 8.98299e-07 2.79943e-07 1.08974e-06 -4.35903e-07 -1.01295e-06 2.86853e-05 -3.56383e-05 -6.70603e-05 0.004 759.863 -2.37971 
177 1 1 -0.0443274 -0.0125289 0.0108104 0 0 0 1.36502e-08 -2.94077e-08 -2.51778e-07 2.50581e-07 -1.11323e-07 1.06742e-07 -9.58345e-06 4.0828e-05 2.53457e-06 0.004 322.889 1.90463 
139 1 1 -0.016821 -0.0121092 0.0110439 0 0 0 1.02639e-06 7.48193e-07 -7.91474e-07 1.57169e-06 -9.90197e-07 -6.85005e-08 4.65285e-05 5.82302e-05 4.83676e-05 0.004 413.179 2.22185 
211 1 1 -0.0020954 -0.0104148 0.0103075 0 0 0 1.41895e-06 1.74627e-06 -4.87317e-08 1.82153e-06 -1.10093e-06 -3.3831e-07 -8.39787e-05 2.40275e-05 0.000125215 0.004 531.237 0.265285 
54 1 1 0.0149155 -0.0138957 0.0108309 0 0 0 1.23487e-06 1.56764e-06 5.51351e-07 1.68451e-06 -7.58885e-07 -5.96505e-07 -3.73466e-06 3.95413e-05 8.21805e-05 0.004 672.18 -2.3163 
84 1 1 0.023272 -0.0118009 0.0106602 0 0 0 5.91114e-07 1.46021e-06 6.42592e-07 1.73369e-06 -5.46116e-07 -8.47047e-07 -0.000106289 0.000178358 -2.00214e-05 0.004 721.635 -2.6091 
180 1 1 0.0438204 -0.0140997 0.0110465 0 0 0 8.27032e-08 2.63412e-07 3.91675e-08 4.01251e-07 -2.33347e-07 -4.01188e-07 -1.4838e-06 1.58897e-05 -1.47273e-05 0.004 778.516 -1.92866 
103 1 1 0.0174441 -0.00636559 0.0105707 0 0 0 6.86465e-07 1.65593e-06 5.25047e-07 1.87958e-06 -7.64816e-07 -6.75284e-07 -0.000122354 3.8618e-05 6.87354e-06 0.004 690.036 -2.41269 
156 1 1 0.0308891 -0.00946111 0.0106299 0 0 0 3.83663e-07 1.25801e-06 3.44521e-07 1.48931e-06 -4.27563e-07 -1.20213e-06 -8.29259e-07 -0.000100226 2.4272e-05 0.004 747.182 -2.49405 
197 1 1 -0.0457831 -0.0047112 0.0107571 0 0 0 -1.68563e-07 -1.34878e-08 -3.42921e-07 2.50379e-07 -9.67541e-08 1.02685e-07 -9.7964e-06 3.90449e-05 2.65124e-05 0.004 318.513 1.72424 
87 1 1 -0.0386059 -0.00381153 0.0141381 0 0 0 -3.03206e-07 4.66939e-08 -8.16289e-07 5.22946e-07 -3.45342e-07 1.28249e-07 -5.56667e-05 -0.000113278 1.71755e-05 0.004 325.489 1.89465 
130 1 1 -0.0313597 -0.00387382 0.0107775 0 0 0 1.60998e-07 1.98045e-07 -6.70153e-07 6.77011e-07 -5.95967e-07 1.44006e-07 0.000149007 5.27182e-05 -3.08765e-05 0.004 343.795 2.20963 
604 1 1 -0.0224595 -0.000300841 0.0110796 0 0 0 5.62055e-07 7.95012e-07 -8.43957e-07 1.41174e-06 -9.82323e-07 1.65414e-07 -4.50675e-05 9.95423e-06 3.39203e-05 0.004 388.099 2.24124 
146 1 1 -0.0155078 -0.00400724 0.0103913 0 0 0 7.80419e-07 9.93157e-07 -6.248e-07 1.4808e-06 -1.03792e-06 -1.03048e-07 -1.23772e-05 -1.47346e-05 3.32659e-05 0.004 430.384 1.86053 
57 1 1 -0.00517524 -0.00310604 0.0111954 0 0 0 9.85169e-07 1.63241e-06 -3.84703e-07 1.94859e-06 -1.14015e-06 -9.43743e-08 -9.48529e-05 2.35492e-05 4.65018e-05 0.004 513.226 0.609181 
493 1 1 0.0116956 -0.000875016 0.0103666 0 0 0 8.23124e-07 1.7276e-06 3.7518e-07 1.88844e-06 -9.31288e-07 -5.11875e-07 -4.73787e-05 3.65974e-05 7.374e-06 0.004 654.772 -1.94219 
31 1 1 0.0250484 -0.00405414 0.0104601 0 0 0 4.54882e-07 1.49062e-06 3.39875e-07 1.63852e-06 -5.76054e-07 -9.16594e-07 -5.84141e-05 5.8463e-05 -1.47223e-05 0.004 724.766 -2.5171 
588 1 1 0.0325998 -0.00174522 0.0105431 0 0 0 1.73796e-07 1.27725e-06 2.44067e-07 1.29581e-06 -4.10758e-07 -1.12403e-06 -5.14609e-05 -5.64055e-05 6.67403e-06 0.004 749.202 -2.37944 
63 1 1 0.045924 -0.00327879 0.0119253 0 0 0 6.97959e-08 3.22735e-07 1.42519e-07 5.58632e-07 -1.59823e-07 -5.38639e-07 -8.54986e-07 4.84469e-05 -4.09454e-05 0.004 779.417 -1.84027 
107 1 1 -0.00850634 -0.045273 0.017677 0 0 0 4.60905e-07 2.34142e-07 -4.18964e-08 6.29118e-07 -3.03385e-07 3.26549e-08 -1.05412e-05 -1.72069e-05 -8.45159e-06 0.004 490.022 1.3748 
222 1 1 -0.00141961 -0.0418101 0.0171129 0 0 0 7.69376e-07 7.10502e-07 2.30205e-07 9.90121e-07 -7.42548e-07 -2.05627e-07 0.000106099 7.9205e-06 3.11726e-05 0.004 542.529 0.215538 
142 1 1 0.00615863 -0.0401388 0.0154212 0 0 0 7.01927e-07 9.81307e-07 3.598e-07 8.64962e-07 -5.58593e-07 -3.47844e-07 -3.43577e-05 2.19249e-05 -2.45076e-05 0.004 592.217 -0.906395 
172 1 1 0.0116013 -0.0446446 0.0189547 0 0 0 5.53732e-07 7.40432e-07 1.81282e-07 6.19337e-07 -4.44047e-07 -3.10649e-07 -1.72435e-06 0.000117842 -0.000140619 0.004 624.643 -1.62837 
109 1 1 0.0204197 -0.0412797 0.0183142 0 0 0 2.99022e-07 4.13377e-07 4.50476e-08 3.06325e-07 -2.67366e-07 -2.69051e-07 3.47894e-05 -4.95987e-05 -7.02605e-05 0.004 683.044 -2.7533 
150 1 1 -0.0273271 -0.0370832 0.0158763 0 0 0 3.47116e-07 4.43913e-08 -1.34534e-07 4.06553e-07 -2.32308e-07 2.79196e-08 1.41568e-05 7.52573e-06 2.5164e-05 0.004 378.529 2.89886 
38 1 1 -0.0197788 -0.0373719 0.0182824 0 0 0 7.217e-07 3.21066e-07 -2.37931e-07 7.06796e-07 -5.23793e-07 2.99597e-08 -1.08314e-05 2.15585e-05 -3.14861e-05 0.004 409.592 2.6709 
199 1 1 -0.0118545 -0.0370266 0.01765 0 0 0 9.36978e-07 5.60518e-07 -2.92214e-07 9.5056e-07 -7.59782e-07 -3.65423e-08 -8.92946e-05 4.48295e-05 6.10744e-05 0.004 444.238 2.21854 
93 1 1 0.0137643 -0.0377759 0.0156807 0 0 0 8.33464e-07 1.05247e-06 2.71238e-07 9.61996e-07 -6.5731e-07 -6.07702e-07 5.35911e-05 8.82136e-05 -9.85779e-05 0.004 644.647 -1.98889 
64 1 1 0.0280176 -0.0365092 0.0179286 0 0 0 8.98311e-08 4.86253e-07 2.99555e-07 5.20103e-07 -2.57956e-07 -4.43872e-07 6.62236e-05 5.12611e-05 -7.91273e-05 0.004 725.56 -2.9927 
22 1 1 -0.0327402 -0.032422 0.0194567 0 0 0 4.45341e-07 1.28181e-08 -2.8206e-07 4.65658e-07 -1.76159e-07 5.6156e-08 -6.00352e-05 4.54391e-05 -6.93594e-05 0.004 356.566 2.72743 
174 1 1 -0.0224319 -0.0302105 0.0162617 0 0 0 1.06038e-06 4.10996e-07 -5.63913e-07 1.05112e-06 -5.86491e-07 3.38246e-08 -0.000135538 5.69781e-05 -5.55174e-05 0.004 394.768 2.70397 
32 1 1 -0.00428311 -0.0343967 0.0166775 0 0 0 1.38003e-06 1.17352e-06 1.04795e-07 1.41943e-06 -9.81506e-07 -1.14578e-07 -0.000134043 6.48612e-05 -5.45347e-05 0.004 516.788 0.756378 
128 1 1 0.00347459 -0.033132 0.0179959 0 0 0 1.51371e-06 1.74135e-06 4.85864e-07 1.70522e-06 -9.78553e-07 -5.21477e-07 -7.36236e-05 3.48255e-05 -6.47e-05 0.004 570.089 -0.454079 
88 1 1 0.0113687 -0.0304834 0.0177099 0 0 0 1.3655e-06 1.83343e-06 7.95301e-07 2.00181e-06 -8.1694e-07 -6.6281e-07 -3.33693e-05 7.68293e-05 1.83251e-05 0.004 642.047 -1.87923 
137 1 1 0.0208046 -0.0338186 0.0156334 0 0 0 6.4948e-07 9.08179e-07 4.54195e-07 8.36121e-07 -5.29312e-07 -5.12387e-07 8.32829e-05 0.000186709 -0.000112205 0.004 697.717 -2.80249 
154 1 1 0.033982 -0.0311387 0.0180551 0 0 0 1.94618e-07 5.04202e-07 2.55862e-07 5.06689e-07 -3.2582e-07 -3.97039e-07 1.24212e-05 3.83531e-05 -0.000106846 0.004 753.176 -2.55085 
52 1 1 -0.031991 -0.0252343 0.0161625 0 0 0 7.10078e-07 -1.77207e-07 -8.68126e-07 8.35109e-07 -2.82171e-07 8.18331e-08 9.42802e-06 5.0159e-05 6.17519e-06 0.004 352.634 2.53861 
80 1 1 -0.00960099 -0.0265066 0.0175805 0 0 0 1.83788e-06 1.40338e-06 -6.68852e-07 2.05224e-06 -1.29165e-06 -1.94061e-07 -0.000170943 0.000127968 5.65424e-05 0.004 467.854 1.57653 
125 1 1 -0.00117363 -0.0267001 0.0173742 0 0 0 2.13415e-06 2.38926e-06 -1.11837e-07 2.07228e-06 -1.16383e-06 -2.83486e-07 -0.000428348 0.000318514 -3.45754e-05 0.004 538.773 0.208391 
72 1 1 0.0179273 -0.0264316 0.015637 0 0 0 1.47854e-06 1.63723e-06 9.04253e-07 1.84554e-06 -8.83579e-07 -1.03394e-06 -2.0641e-05 1.24074e-05 -0.00011187 0.004 681.394 -2.50233 
34 1 1 0.0269647 -0.0287251 0.0154182 0 0 0 3.08703e-07 1.17565e-06 5.41775e-07 8.91745e-07 -4.82411e-07 -5.84163e-07 4.60638e-05 1.9393e-05 -1.1059e-05 0.004 733.671 -2.67182 
218 1 1 -0.0395968 -0.0234663 0.0176916 0 0 0 3.22776e-07 -1.95643e-07 -4.24057e-07 4.6762e-07 -1.51202e-07 9.70438e-08 1.13274e-05 6.72822e-05 -2.06065e-05 0.004 332.498 2.21318 
70 1 1 -0.0247175 -0.0230258 0.0185786 0 0 0 1.16532e-06 3.40772e-07 -1.31323e-06 1.44035e-06 -7.00667e-07 9.34447e-08 -1.72166e-05 1.32618e-05 5.28186e-05 0.004 376.204 2.5201 
132 1 1 -0.0171323 -0.0242634 0.0164744 0 0 0 1.43738e-06 7.30975e-07 -9.2796e-07 1.61726e-06 -1.02249e-06 -3.14716e-08 -3.07282e-05 -1.98494e-05 7.07148e-06 0.004 412.977 2.36915 
196 1 1 0.0071665 -0.023789 0.0170602 0 0 0 1.97251e-06 2.7915e-06 5.6252e-07 2.65869e-06 -1.24284e-06 -6.63615e-07 -0.000385783 8.88223e-05 -0.000274253 0.004 619.458 -1.40462 
362 1 1 0.0243874 -0.0214292 0.0170617 0 0 0 9.08038e-07 2.03271e-06 1.44226e-06 2.17946e-06 -6.0963e-07 -9.63207e-07 -1.40828e-05 0.000248021 -0.000192237 0.004 732.804 -2.62335 
49 1 1 0.0387627 -0.0248027 0.0179815 0 0 0 2.40113e-07 3.35751e-07 1.83878e-07 5.42264e-07 -3.09409e-07 -4.44303e-07 1.69893e-05 2.87648e-05 1.6646e-05 0.004 765.92 -2.31758 
173 1 1 -0.0431191 -0.0163148 0.0177078 0 0 0 2.37284e-07 -1.47593e-07 -4.04958e-07 4.4327e-07 -2.02888e-07 2.07389e-07 4.5785e-06 7.45404e-05 -3.83394e-05 0.004 326.776 1.97308 
50 1 1 -0.0295064 -0.0167659 0.0182812 0 0 0 7.13467e-07 -8.68408e-08 -1.56298e-06 1.28893e-06 -6.67761e-07 8.57154e-08 3.44587e-05 -5.33937e-05 9.73037e-05 0.004 353.477 2.31913 
202 1 1 -0.0134619 -0.0172167 0.0161107 0 0 0 1.49722e-06 1.3444e-06 -8.03803e-07 2.02067e-06 -1.1471e-06 -1.54994e-07 -0.000117622 -0.000152966 0.000162725 0.004 440.255 1.86196 
86 1 1 -0.00524867 -0.0199157 0.0183758 0 0 0 1.89178e-06 2.21927e-06 -7.15163e-07 2.51897e-06 -1.51948e-06 -4.79877e-07 0.000166953 -0.000139599 4.92266e-05 0.004 510.582 0.729637 
129 1 1 0.0138597 -0.0196295 0.016286 0 0 0 1.80996e-06 2.04487e-06 7.81274e-07 2.49287e-06 -9.27119e-07 -8.35846e-07 -3.58208e-07 -0.000104323 8.07292e-05 0.004 664.821 -2.12808 
82 1 1 0.0291401 -0.0151359 0.0159325 0 0 0 6.87259e-07 1.64663e-06 6.84004e-07 2.00841e-06 -6.17878e-07 -1.19459e-06 -0.000107839 0.000124112 3.99978e-05 0.004 747.766 -2.50337 
1 1 1 0.0424682 -0.0178049 0.0178803 0 0 0 2.62473e-07 3.43437e-07 4.6885e-08 7.27695e-07 -2.87915e-07 -5.20862e-07 -3.59335e-05 2.39468e-05 -2.70575e-05 0.004 774.113 -2.0447 
168 1 1 -0.0224798 -0.0136303 0.0164169 0 0 0 9.6204e-07 6.38798e-07 -1.20317e-06 1.74418e-06 -9.80397e-07 2.15777e-07 -2.31446e-05 -8.10664e-06 3.20116e-05 0.004 386.07 2.39381 
121 1 1 -0.00514898 -0.0120184 0.0174569 0 0 0 1.69073e-06 2.29235e-06 -2.63869e-07 2.80345e-06 -1.61083e-06 -3.17813e-07 -0.000156596 -3.95829e-05 0.000102566 0.004 516.769 0.545113 
28 1 1 0.00814308 -0.0139813 0.0183177 0 0 0 1.73902e-06 3.31418e-06 9.67675e-07 3.39171e-06 -1.88828e-06 -9.56349e-07 -9.12242e-05 -3.84253e-05 4.80732e-05 0.004 627.172 -1.54756 
42 1 1 0.0200408 -0.0148104 0.017266 0 0 0 1.45312e-06 2.66442e-06 1.58148e-06 2.90824e-06 -9.00796e-07 -1.11782e-06 -8.53686e-05 -9.44601e-07 3.95807e-05 0.004 707.592 -2.48099 
60 1 1 0.0376281 -0.0116471 0.016172 0 0 0 1.36871e-07 8.90823e-07 2.9274e-07 1.44346e-06 -3.0418e-07 -1.64427e-06 -8.04948e-05 -3.11376e-05 -3.84727e-06 0.004 771.931 -2.05838 