ITEM: TIMESTEP
7200
ITEM: NUMBER OF ATOMS
890
ITEM: BOX BOUNDS mm mm mm
-0.05 0.05
-0.05 0.05
0 0.15
ITEM: ATOMS id type type x y z ix iy iz vx vy vz fx fy fz omegax omegay omegaz radius f_Temp[0] f_heatFlux[0] 
59 1 1 -0.00090529 -0.0460972 0.00394065 0 0 0 0.0184357 0.000126229 0.00164286 -0.00250203 -0.000868772 0.00305923 0.0259986 -0.735937 -4.87512 0.004 300 0 
170 1 1 -0.017482 -0.0425886 0.00396888 0 0 0 0.00190457 -0.0028503 0.00029756 -0.00275102 0.000773343 0.00496867 0.023217 -0.877981 0.904522 0.004 300 0 
15 1 1 -0.00987819 -0.0449302 0.0039436 0 0 0 0.00251027 0.000772443 0.000343277 -0.00174669 -0.000635638 0.00562246 -0.334004 0.590926 -0.0182771 0.004 300 0 
116 1 1 0.00634833 -0.0429264 0.00396054 0 0 0 0.0166157 -0.00353323 0.0021606 -0.0032548 -0.000381313 -0.000994918 0.0820823 0.594686 4.12641 0.004 300 0 
158 1 1 0.0142306 -0.0438233 0.00388938 0 0 0 0.00966615 0.00352823 -0.000618443 -0.00611325 0.000573676 0.00349022 0.512107 0.0977715 -2.37437 0.004 300 0 
98 1 1 0.0215737 -0.0407016 0.00393278 0 0 0 0.00294025 0.00174829 0.00196064 0.0131799 0.00971609 -0.0053114 0.422761 -0.374148 -1.79009 0.004 300 0 
169 1 1 -0.0245589 -0.0389899 0.0039101 0 0 0 0.00291624 -0.00307872 0.000571028 -0.00170682 -0.00131396 0.000169539 0.692126 0.932507 -1.10134 0.004 300 0 
89 1 1 -0.0118784 -0.0369366 0.00398163 0 0 0 0.00210966 -0.00601548 0.00228806 0.000499909 0.00642612 -0.00015337 -0.074582 -0.292014 -2.5685 0.004 300 0 
152 1 1 -0.00422297 -0.0389519 0.00389438 0 0 0 0.00429288 -0.00456081 0.00066314 0.00381627 0.00602872 0.00381948 0.915292 -0.608434 8.6237 0.004 300 0 
23 1 1 0.0152291 -0.0359629 0.00391733 0 0 0 0.00678005 0.00409972 0.00169297 -3.99202e-06 -0.00302513 0.00808804 -0.423081 1.41054 2.71856 0.004 300 0 
118 1 1 -0.0308672 -0.0341579 0.00395502 0 0 0 0.00360821 -0.00689695 -0.000201384 0.00198688 -0.00318503 0.00678135 -0.516844 -0.735701 2.07633 0.004 300 0 
30 1 1 -0.0189468 -0.0333508 0.00393976 0 0 0 -0.000562614 -0.00337074 0.00216951 -0.00133125 0.00367354 -0.000341501 1.01909 -0.0926548 2.12617 0.004 300 0 
215 1 1 -0.00614902 -0.031278 0.00390875 0 0 0 -0.000720973 -0.00479297 0.00165644 0.00548416 0.000864174 -0.0121998 -0.586394 0.46301 -7.31916 0.004 300 0 
74 1 1 0.00164666 -0.0335501 0.00389877 0 0 0 0.0081545 -0.0147682 -0.00141366 0.00271594 -0.00557535 -0.00741412 2.10533 1.30093 -3.67435 0.004 300 0 
24 1 1 0.00911008 -0.0308628 0.00395105 0 0 0 0.00176028 -0.00175275 -0.0014821 0.00270502 0.000324018 0.00182659 0.335304 0.41069 4.16676 0.004 300 0 
198 1 1 0.0253774 -0.0337021 0.00397401 0 0 0 0.0105429 0.00444206 -0.00685873 -0.00247728 0.0202813 0.0121927 -0.503413 -0.234546 4.74806 0.004 300 0 
161 1 1 0.0331647 -0.0319734 0.00392747 0 0 0 0.00878082 0.0138046 0.00160206 -0.00378546 0.0024813 -0.000287553 -1.13381 1.91003 -3.03163 0.004 300 0 
8 1 1 -0.032377 -0.026366 0.00397765 0 0 0 -0.00529281 -0.0125305 0.000378521 -0.0128812 -0.000104923 0.00804124 0.840012 -0.368867 -2.6731 0.004 300 0 
12 1 1 -0.0245093 -0.0276781 0.00385866 0 0 0 -0.00543826 -0.00981988 -0.000538059 -0.00158082 0.00306199 -0.00368053 2.58977 -1.21338 1.0444 0.004 300 0 
188 1 1 -0.0132858 -0.0277635 0.00395557 0 0 0 -0.000997054 -0.00841073 0.000454556 0.000249211 -0.00670003 -0.00561321 2.26139 -0.424744 0.445919 0.004 300 0 
77 1 1 -0.00038169 -0.0258638 0.00391094 0 0 0 0.00995585 -0.0157907 0.000325297 -0.000183162 0.00837526 0.00039433 -0.360092 0.357132 3.35609 0.004 300 0 
113 1 1 0.016563 -0.0281512 0.00387526 0 0 0 -0.00320429 0.0076272 0.00189715 0.00134551 -0.00438072 0.0077664 0.925603 0.772983 -0.0185886 0.004 300 0 
183 1 1 0.0383262 -0.0255404 0.00394742 0 0 0 -0.000301152 0.00193503 0.00166502 -0.00305258 -0.00353387 -0.000378338 -0.34794 0.251066 -0.325495 0.004 300 0 
162 1 1 -0.0397084 -0.0233033 0.00387706 0 0 0 -9.57232e-05 -0.0068891 0.00315011 -0.00561294 0.00979503 -0.00257967 1.1677 -0.0264909 2.10094 0.004 300 0 
148 1 1 -0.0188376 -0.0220234 0.00397293 0 0 0 -0.00114762 -0.00832387 -0.00614026 0.00150847 -0.00738168 -0.00879667 1.00081 -0.419353 0.0216672 0.004 300 0 
195 1 1 -0.00759535 -0.0221146 0.00396021 0 0 0 0.000845926 0.000723525 0.0033515 0.00391717 -0.00298534 -0.00201839 -0.188025 0.220767 -2.53947 0.004 300 0 
179 1 1 0.00714756 -0.0231478 0.00396573 0 0 0 0.00978837 -0.000105501 0.000676653 0.00728789 -0.00502642 -0.00396508 -0.972849 -1.21919 -0.529374 0.004 300 0 
95 1 1 0.0148089 -0.0204629 0.00393939 0 0 0 -0.00966449 0.00971312 0.000272098 -0.00746738 -0.00116257 0.00638428 -1.11386 -0.897291 -0.274025 0.004 300 0 
76 1 1 0.0229991 -0.0232838 0.00394801 0 0 0 -0.0163345 -0.00396567 0.00614783 0.00416683 0.00979019 0.00876448 1.13906 -3.17451 0.0883056 0.004 300 0 
100 1 1 0.0325319 -0.0201241 0.00390965 0 0 0 -0.00622343 -0.00219563 -0.000341234 -0.00493804 -0.00238851 -0.0022047 0.554195 -1.26017 1.76619 0.004 300 0 
65 1 1 -0.043135 -0.0161943 0.00393793 0 0 0 0.00338502 -0.0109217 0.00366139 -0.00296257 0.0132053 -0.000587607 -0.554198 -1.4155 -2.9793 0.004 300 0 
102 1 1 -0.0352758 -0.0152279 0.00394115 0 0 0 0.00315052 -0.00118951 0.00318387 -0.0015782 0.00368908 0.00607736 1.30339 1.22842 6.28448 0.004 300 0 
53 1 1 -0.0276049 -0.0200214 0.00395894 0 0 0 0.0266002 -0.0393173 0.00320483 -0.0117706 0.0123277 -0.00336428 4.34149 3.1781 2.80452 0.004 300 0 
213 1 1 -0.0131591 -0.016397 0.0039806 0 0 0 -0.00464743 -0.00238376 0.00165516 -0.00076276 -0.00306429 0.00101902 0.0104031 -0.71963 4.02135 0.004 300 0 
5 1 1 0.00880895 -0.0153431 0.00388031 0 0 0 -0.0175157 0.000970184 -0.00254938 0.00125881 0.00396338 0.00325265 1.83883 -1.78302 3.20237 0.004 300 0 
96 1 1 0.0210024 -0.0155573 0.00394591 0 0 0 -0.00246107 0.00225901 0.00411845 -0.000455661 0.000547668 0.00334205 -0.276024 -1.22875 -2.3964 0.004 300 0 
167 1 1 0.0421209 -0.0185174 0.00392223 0 0 0 0.00116311 0.000311733 -0.00062947 0.000188239 0.00512442 0.00307185 0.985178 -0.27782 -1.09283 0.004 300 0 
124 1 1 -0.0287706 -0.0107105 0.00393175 0 0 0 -0.00159823 0.0115195 -0.00182289 0.00203623 0.00117862 0.0085352 -3.27428 -0.352725 -2.65 0.004 300 0 
220 1 1 -0.0217966 -0.0146164 0.00397934 0 0 0 -0.00497183 -0.00694511 0.000894036 -0.00407177 0.000482285 0.00234813 -1.12386 1.7102 -0.385612 0.004 300 0 
144 1 1 -0.00552687 -0.0139004 0.00389908 0 0 0 -0.00145921 0.00657285 -0.000907694 -0.00114171 -0.0106419 -0.0011138 -2.36537 0.109702 2.61685 0.004 300 0 
26 1 1 0.00260393 -0.010491 0.00390465 0 0 0 -0.0166893 -0.0073296 -0.0033842 0.00825393 -0.00418678 -0.0006793 2.73912 -3.5432 -2.27666 0.004 300 0 
194 1 1 0.0285878 -0.013223 0.00392525 0 0 0 -0.00222148 -0.00213839 0.0011512 0.00451478 0.000680936 0.00191088 0.595415 -0.651796 -0.121264 0.004 300 0 
37 1 1 0.0367911 -0.0123358 0.00397311 0 0 0 -0.0098815 0.0241568 -0.00113743 -0.00462583 -0.013933 -0.00599069 -4.52454 -0.626306 -0.635895 0.004 300 0 
219 1 1 0.0446841 -0.0109922 0.00388681 0 0 0 0.00152824 0.00336236 -0.00068508 0.000420397 0.0002451 0.00103662 -0.722681 0.460347 1.9409 0.004 300 0 
636 1 1 -0.0452301 -0.00857889 0.00392519 0 0 0 0.00410695 -0.0121216 0.00133503 0.00074715 0.0161598 0.0040763 -0.383962 1.32622 2.74829 0.004 300 0 
39 1 1 -0.016184 -0.00901817 0.00387613 0 0 0 -0.00644561 -0.000818802 -0.00302619 0.000959982 0.00501042 0.00516651 0.828149 -1.2535 3.69753 0.004 300 0 
171 1 1 -0.00396801 -0.00610056 0.00389411 0 0 0 -0.00548875 0.00134664 -0.018448 0.0127901 -0.000787087 -0.0126874 -2.19335 -1.88106 -1.51237 0.004 300 0 
200 1 1 0.0144437 -0.00976444 0.00391862 0 0 0 -0.00604544 -0.0182164 0.000255348 -0.000663256 0.00175096 -0.0117906 -2.26512 -2.51521 -7.98744 0.004 300 0 
21 1 1 0.0221418 -0.00769013 0.00393358 0 0 0 -0.00267315 0.00207534 0.00332209 -0.00828428 -0.00531201 -0.00094188 -0.583627 -0.499697 0.625363 0.004 300 0 
17 1 1 0.0298531 -0.00534805 0.00393625 0 0 0 -0.00546734 0.000162132 -0.00237476 0.00241464 -0.00385503 -0.000379551 -0.473139 -1.33948 0.6383 0.004 300 0 
477 1 1 -0.044427 -0.000694256 0.00396529 0 0 0 -0.0396028 -0.00615308 0.00600328 0.00909156 0.00829335 0.0053455 0.437308 -2.1832 2.60917 0.004 300 0 
140 1 1 -0.0352427 -0.00366824 0.00386778 0 0 0 0.00310685 0.00369436 0.000712266 0.00162906 0.00239064 -0.00296486 -1.40063 0.919069 -0.848533 0.004 300 0 
119 1 1 -0.0273183 -0.00291551 0.00395812 0 0 0 0.00208517 0.0122849 -0.000781957 -0.00133615 0.00960759 -0.000232109 -1.52892 0.216332 0.917029 0.004 300 0 
207 1 1 -0.0193558 -0.00177999 0.00389367 0 0 0 -0.0245925 -0.00501683 0.00248995 -0.00546932 -0.00134588 0.00150941 0.226141 -2.84504 -0.744623 0.004 300 0 
69 1 1 -0.0110617 -0.00257314 0.00389916 0 0 0 -0.0070687 0.00620641 0.00252965 0.0142253 -0.00581485 0.00780605 0.00636498 -1.81773 2.77486 0.004 300 0 
221 1 1 0.00876192 -0.0041829 0.00394246 0 0 0 0.00709975 -0.00113634 -0.0102609 0.00130667 -0.0133167 -0.000320448 1.79711 0.186919 2.75164 0.004 300 0 
457 1 1 0.0164068 -0.00191541 0.00393858 0 0 0 0.000583736 0.0289534 0.0158263 0.00573165 -0.0315269 0.0337497 0.220573 0.417402 2.4123 0.004 300 0 
155 1 1 0.0379604 -0.00254464 0.00393229 0 0 0 -0.00278741 0.00615835 -0.000812681 0.00160116 0.00883502 0.00407606 -0.986841 -0.90412 2.98626 0.004 300 0 
665 1 1 0.0459239 -0.0032023 0.00393475 0 0 0 -0.0013826 0.00372387 -0.000414087 0.00234767 0.00240646 0.00314214 0.677528 -0.260999 -0.913337 0.004 300 0 
120 1 1 0.00907138 -0.0372161 0.00875663 0 0 0 0.00767488 0.000439901 0.00224669 -0.00140352 -0.000540935 -0.000639333 -0.458155 -1.40023 -1.58697 0.004 300 0 
9 1 1 -0.0246984 -0.0333271 0.00941139 0 0 0 -0.00464752 -0.00551632 -0.00135716 0.00014415 0.00149261 -0.0137342 -1.82848 -0.909749 -0.335152 0.004 300 0 
101 1 1 -0.0190064 -0.0276985 0.0095797 0 0 0 -0.00674626 -0.000819389 0.000207415 -0.00118506 -0.00341194 -0.007438 0.155999 0.639848 4.05448 0.004 300 0 
48 1 1 0.0220437 -0.0289416 0.00945827 0 0 0 0.0107839 -0.0297974 -0.0155446 -0.00185627 -0.00676597 0.00298943 1.1924 1.59767 -1.12955 0.004 300 0 
75 1 1 0.0293283 -0.0262485 0.00782378 0 0 0 -0.00466085 0.0070552 0.00478029 -0.00168647 -0.000615255 0.00794118 1.98608 -2.61533 6.77593 0.004 300 0 
46 1 1 -0.0331951 -0.0203402 0.00962876 0 0 0 0.00857952 -0.00355238 0.000176711 -0.00214296 0.0011096 -0.00323894 -2.89326 -0.482511 -4.10251 0.004 300 0 
33 1 1 -0.0131952 -0.0222624 0.00967599 0 0 0 0.00570766 -0.0101752 -0.0011483 0.00798089 -0.0118458 -0.00161281 -2.85212 0.934559 -1.83014 0.004 300 0 
10 1 1 0.0010623 -0.0181593 0.00511833 0 0 0 -0.00610773 -0.0110251 -0.0305817 0.00495589 -0.0012757 0.0178167 -1.09607 -2.25059 4.14199 0.004 300 0 
11 1 1 0.0268539 -0.0188329 0.00931863 0 0 0 -0.00854212 0.00396122 0.0076992 0.00459932 0.00451881 0.00665976 -0.917127 0.904538 -3.00991 0.004 300 0 
71 1 1 -0.0373865 -0.00931404 0.00889465 0 0 0 -0.00354665 0.00267175 -0.00209168 0.00855595 0.00163994 -0.00585595 1.24095 -5.54066 2.64718 0.004 300 0 
62 1 1 -0.0227524 -0.00782914 0.0082451 0 0 0 -0.00043297 0.0125918 0.000497796 0.00408748 0.00208753 0.00867669 1.09191 -0.608186 0.731358 0.004 300 0 
19 1 1 -0.00978847 -0.00897829 0.00848481 0 0 0 -0.00351386 0.0045769 0.00161855 0.0162475 0.0116796 0.00877083 1.91405 1.23474 0.422679 0.004 300 0 
187 1 1 0.00805634 -0.00987341 0.0096944 0 0 0 -0.0296234 -0.0075438 0.0120934 0.0133095 0.000806211 -0.00593442 1.39218 -5.37213 0.0407982 0.004 300 0 
157 1 1 0.0395004 -0.00763814 0.00982134 0 0 0 0.0115417 0.00635506 -0.00703168 -0.01709 -0.0111331 0.0016842 2.54072 0.0959959 0.231449 0.004 300 0 
18 1 1 0.0023088 -0.00414694 0.00856301 0 0 0 0.00369926 0.00325216 -0.0226466 -0.000859004 -0.00424808 -0.00136464 -8.6196 3.76474 -3.82997 0.004 300 0 
185 1 1 -0.00541901 -0.045719 0.0104576 0 0 0 0.00798778 0.00279499 -0.00240679 -0.00387596 0.00106 0.00705549 1.12013 0.958038 1.90243 0.004 300 0 
83 1 1 0.00248334 -0.0459582 0.0111642 0 0 0 0.00515931 -0.000125885 0.0145145 -0.00919301 0.00125958 -0.00248975 -0.349858 1.87669 -0.09671 0.004 300 0 
58 1 1 -0.0217932 -0.0406133 0.0111775 0 0 0 -0.00459542 0.00479504 0.00282463 0.00256698 -0.00885348 -0.00232183 0.285677 0.205294 1.57122 0.004 300 0 
105 1 1 -0.0137871 -0.0435342 0.0109727 0 0 0 -0.00375967 -0.0714996 -0.00400148 0.0103402 -0.00166114 -0.000548696 -9.39367 -9.08197 -1.91682 0.004 300 0 
223 1 1 0.0103273 -0.0448998 0.0106824 0 0 0 0.00267262 0.000878218 -0.00351372 -0.00385379 0.00654796 -0.00154351 -0.922669 0.490386 -0.802869 0.004 300 0 
217 1 1 0.0178777 -0.0424663 0.0107715 0 0 0 0.000177478 0.000955669 0.000724172 -0.000374829 -0.000452348 -0.00747368 -0.447949 -3.06837 1.21656 0.004 300 0 
151 1 1 -0.00768179 -0.038105 0.0109632 0 0 0 -0.0432411 -0.00780226 -0.0195267 0.00805745 -0.00275545 -0.00193056 -6.36124 2.15078 9.25694 0.004 300 0 
2 1 1 0.000581305 -0.0382775 0.0101427 0 0 0 -0.00939174 -0.00252203 0.00907027 -0.00496524 0.00182212 0.00574175 -1.90246 3.48793 -4.69086 0.004 300 0 
117 1 1 0.0248485 -0.0387769 0.0108913 0 0 0 -0.00191982 0.00542669 0.00491628 0.000455167 0.000491733 -0.000799779 0.225792 2.21323 0.055349 0.004 300 0 
13 1 1 -0.0322926 -0.0328213 0.011666 0 0 0 -0.0043605 0.00389007 -0.00455212 -0.00245323 -0.00623465 -0.00469052 1.51916 1.07998 -0.778463 0.004 300 0 
6 1 1 -0.0162896 -0.0349706 0.0112806 0 0 0 0.00431234 -0.00101037 -0.00118543 0.00451486 -0.00175277 0.00381452 -2.26745 -1.89512 -3.86132 0.004 300 0 
193 1 1 -0.00985011 -0.0304363 0.0108163 0 0 0 0.00351963 0.0017086 0.00177452 0.0102753 -0.00260519 -0.0112363 1.08444 0.152483 4.21913 0.004 300 0 
47 1 1 -0.00165796 -0.0306281 0.0104748 0 0 0 0.0157469 0.00441895 -0.0149348 -0.0130242 -0.025976 -0.0369183 -5.11007 -2.71061 -3.19713 0.004 300 0 
153 1 1 0.00654044 -0.0301743 0.0114475 0 0 0 0.0129626 0.00357261 0.00285179 0.00571501 -0.00510283 0.00481353 0.499304 -0.55028 -0.648614 0.004 300 0 
41 1 1 0.0147298 -0.031819 0.0106511 0 0 0 0.00384299 0.00371761 0.00495497 0.0024921 -0.00632214 0.0102717 -1.21139 0.0141958 -1.21427 0.004 300 0 
163 1 1 0.0310766 -0.0339829 0.011322 0 0 0 0.00158406 0.00428956 -0.000743689 -0.000147236 -0.00619203 -0.00303159 0.955805 0.266328 -0.765421 0.004 300 0 
214 1 1 -0.0374301 -0.0269578 0.0104521 0 0 0 -0.00314792 0.00475624 0.00868576 0.00376338 -0.00321261 -0.00363946 -0.324681 -1.67401 1.42949 0.004 300 0 
210 1 1 0.0364036 -0.0281786 0.0111881 0 0 0 0.000452349 0.00151807 0.00268561 -0.00251217 -0.00927969 -0.00230103 0.655252 0.0221191 0.728929 0.004 300 0 
160 1 1 -0.0414347 -0.0200044 0.0108859 0 0 0 -0.00152361 0.0014684 0.00206447 0.00417665 -0.0052557 0.00808316 -0.769162 0.881393 0.321851 0.004 300 0 
108 1 1 -0.0263159 -0.0241756 0.010654 0 0 0 -0.00116654 -0.0210933 0.00281393 -0.00327773 0.00176797 -0.000642211 0.828249 0.434802 -4.27652 0.004 300 0 
40 1 1 -0.00556818 -0.0237889 0.0114726 0 0 0 0.0121904 0.00203919 0.0036655 0.0113614 -0.0035825 -0.00510042 -0.572168 1.92653 0.120598 0.004 300 0 
55 1 1 0.00234234 -0.0234541 0.010914 0 0 0 0.0125665 0.00722061 -0.00840699 -0.00044758 -0.00784079 0.00643042 -3.67813 1.72366 1.87036 0.004 300 0 
91 1 1 0.0119494 -0.0244466 0.010194 0 0 0 0.00989237 0.00436834 -0.00115488 0.00693352 -0.00857175 -0.00329493 -1.00549 1.72215 0.20116 0.004 300 0 
112 1 1 0.0192382 -0.0207703 0.0105347 0 0 0 -0.013066 0.0192682 0.00280037 0.000584243 0.00319062 0.00141513 4.09379 -0.950849 -1.69141 0.004 300 0 
178 1 1 0.0317197 -0.0226152 0.0144864 0 0 0 0.0103356 0.00312147 0.00609531 -0.00357405 0.00379976 -0.000366872 2.6535 2.83683 -0.470758 0.004 300 0 
131 1 1 0.040723 -0.0215741 0.0110784 0 0 0 -0.00203421 -0.00184839 -0.00466769 -0.00420108 -0.00913723 -0.00860447 -1.39385 0.0934079 -0.0619015 0.004 300 0 
4 1 1 -0.0271964 -0.0151851 0.0102883 0 0 0 0.0068575 -0.00200304 -0.0128761 0.0132225 -0.00224513 0.0156433 7.1669 2.62563 1.57052 0.004 300 0 
104 1 1 -0.0203064 -0.0190766 0.0112429 0 0 0 0.000768275 -0.0199734 -0.0161511 0.0175796 -0.00918094 -0.020199 -4.00342 2.03162 4.60172 0.004 300 0 
20 1 1 -0.00811332 -0.0163175 0.010956 0 0 0 -0.00416419 -0.00248296 -0.00425859 -5.4092e-05 -0.000822405 0.00967709 -0.887799 -4.58762 4.08454 0.004 300 0 
45 1 1 0.000711945 -0.0165406 0.0144772 0 0 0 -0.00857618 0.00236694 -0.00361762 0.00526662 -0.00135002 -0.00735414 0.386352 -2.36858 -0.967421 0.004 300 0 
159 1 1 0.00786549 -0.0177711 0.0112864 0 0 0 0.00200318 -0.00121211 0.00159514 0.00156316 0.00600349 0.00760098 -1.66412 5.31878 3.52036 0.004 300 0 
136 1 1 0.0347596 -0.0164141 0.0105361 0 0 0 -0.00156588 -0.00264335 -0.00910204 -0.000822503 -0.00131789 0.00209024 -0.751026 3.82325 -0.795325 0.004 300 0 
177 1 1 -0.0443153 -0.0125896 0.0108938 0 0 0 -0.00556677 0.00936148 -0.00491963 0.00643259 0.00695501 0.0194758 -2.589 0.638846 0.97614 0.004 300 0 
43 1 1 -0.0361097 -0.0147549 0.0144546 0 0 0 0.00441468 -3.51664e-05 -0.00533957 -0.0134241 -0.00383478 -0.0160812 3.20673 -2.25925 -1.65097 0.004 300 0 
139 1 1 -0.0166814 -0.0120477 0.0111469 0 0 0 -0.00406264 -0.012602 -0.0170394 0.0125968 -0.00361319 -0.00718521 3.46503 0.631141 -2.942 0.004 300 0 
211 1 1 -0.0021905 -0.0104783 0.0102766 0 0 0 -0.00825874 0.0098982 -0.00574525 -0.00220124 -0.00178577 -0.00774601 1.74129 -0.807427 1.94736 0.004 300 0 
54 1 1 0.0149052 -0.0140807 0.010597 0 0 0 -0.00887032 0.022867 0.0341477 0.00159621 0.0120413 0.00533829 -2.56864 -0.664621 5.24845 0.004 300 0 
84 1 1 0.0231562 -0.0119062 0.010659 0 0 0 -0.00285481 0.00633924 0.00922736 0.00322613 0.00680891 -0.0115187 0.0338676 2.26315 1.02572 0.004 300 0 
180 1 1 0.0437714 -0.0142642 0.010966 0 0 0 -0.000447108 0.000553668 -0.00340117 -0.000996733 0.00225925 0.00394526 1.18304 -1.80918 -0.0679286 0.004 300 0 
103 1 1 0.0173369 -0.00639131 0.0104477 0 0 0 -0.00856191 -0.00990936 -0.00399634 0.00120832 -0.0213786 0.0173446 -4.61937 -0.467525 -1.85522 0.004 300 0 
156 1 1 0.0307805 -0.00959213 0.0106002 0 0 0 0.00176067 0.000931442 6.39539e-05 0.0112329 -0.000362919 0.00294427 -1.95415 1.40917 -0.348948 0.004 300 0 
197 1 1 -0.0457786 -0.00475768 0.0108275 0 0 0 0.00524762 0.0158861 -0.00785294 0.00311324 -0.00911707 0.0201293 -4.92045 -0.882909 0.676851 0.004 300 0 
87 1 1 -0.0387538 -0.0035934 0.014457 0 0 0 0.0227553 -0.0148948 -0.0332091 0.0017805 -0.0103995 -0.00563506 5.23319 1.59539 -4.60837 0.004 300 0 
130 1 1 -0.0313279 -0.00397197 0.0107726 0 0 0 0.00218928 0.0188148 0.00114344 -0.00695925 0.00692514 -0.00568545 1.19516 -0.385389 -3.21436 0.004 300 0 
604 1 1 -0.0224528 -0.000370723 0.0110225 0 0 0 -0.00300414 0.00788272 0.0102321 -0.00673758 -0.0110903 -0.0102712 1.13052 4.93451 -4.81072 0.004 300 0 
146 1 1 -0.0152478 -0.00353103 0.010498 0 0 0 -0.0213484 -0.0232172 -0.00491119 0.00416091 0.0191419 0.0165043 7.66825 -1.72028 -1.14269 0.004 300 0 
57 1 1 -0.00524413 -0.0029881 0.011032 0 0 0 0.00649931 0.0273758 -0.0458669 0.00438081 0.0025312 0.0238603 -2.76403 5.67594 5.09074 0.004 300 0 
493 1 1 0.0118509 -0.000668816 0.0103764 0 0 0 0.00108181 -0.00914941 0.0013977 -0.0220597 0.000916311 0.00537652 4.06743 1.18955 7.29566 0.004 300 0 
31 1 1 0.0249697 -0.00417251 0.0104351 0 0 0 0.00333303 0.00152512 -0.000388433 -0.00411436 -0.00436983 -0.00966496 0.0498917 3.12883 -0.519681 0.004 300 0 
588 1 1 0.0325396 -0.00187981 0.0105588 0 0 0 0.00791851 0.00344303 -0.0163911 0.00667195 -0.0106038 0.00191483 -0.17631 -0.210002 -1.48042 0.004 300 0 
63 1 1 0.0459006 -0.00337287 0.0118979 0 0 0 0.000386851 0.0072694 0.00351425 0.0214413 0.000224568 -0.000490754 -2.65618 0.954034 0.476885 0.004 300 0 
107 1 1 -0.00867898 -0.0452351 0.0176539 0 0 0 0.0192102 -0.00120459 0.00319644 0.000744267 -0.00669902 -0.00137442 -0.0279903 -3.56243 -2.76251 0.004 300 0 
222 1 1 -0.00152561 -0.0419511 0.0168465 0 0 0 0.0117428 0.00731046 0.0222219 0.00549219 -0.0102601 -0.00190683 -2.67548 -3.09188 5.76814 0.004 300 0 
142 1 1 0.00608815 -0.0402474 0.0154516 0 0 0 0.00368269 -0.00385568 -0.00212001 0.0100183 0.0028584 0.00256889 0.536136 0.998203 2.76704 0.004 300 0 
172 1 1 0.0115556 -0.044614 0.0191451 0 0 0 0.0105078 -0.00348831 -0.0167104 0.0146285 -0.00292592 0.0110175 -0.593275 -2.52707 0.811579 0.004 300 0 
109 1 1 0.0203279 -0.0413182 0.018271 0 0 0 0.00248173 -0.000840425 -0.00910269 0.010731 -0.0073533 0.00381251 1.17047 0.396692 0.703666 0.004 300 0 
150 1 1 -0.0272156 -0.0371701 0.0158904 0 0 0 -0.00945377 0.00645566 -0.00447557 0.00305387 -0.00692534 -0.0173544 -1.46577 -2.57882 1.04105 0.004 300 0 
38 1 1 -0.0196235 -0.0373179 0.018126 0 0 0 -0.00823351 -0.00875229 -0.00683679 0.0012378 -0.0102053 -0.0135106 3.35686 3.38424 1.53143 0.004 300 0 
199 1 1 -0.0117243 -0.0366035 0.017607 0 0 0 -0.00211093 -0.00875805 0.00467996 0.00819183 -0.0262702 0.0070784 -1.90375 7.66844 0.640812 0.004 300 0 
93 1 1 0.0136672 -0.0378551 0.0155983 0 0 0 0.00243782 -0.000966476 -0.00297415 0.0178187 0.000782219 -0.00821892 3.78296 1.76052 -0.936365 0.004 300 0 
64 1 1 0.0277409 -0.0366965 0.0180267 0 0 0 0.00670473 0.00756748 0.00166237 0.00249332 0.000727992 -0.00249356 -1.14126 -0.322886 -0.919201 0.004 300 0 
22 1 1 -0.0328638 -0.0323059 0.0196051 0 0 0 0.000554117 -0.00678756 -0.0095317 -0.026569 -0.00986539 -0.0225683 1.39038 2.78356 -0.826254 0.004 300 0 
174 1 1 -0.0224991 -0.0302009 0.0163173 0 0 0 -0.00174363 -0.0029575 -0.0110617 -0.00089338 -0.00553306 -0.0136616 -1.04163 0.767521 -5.13809 0.004 300 0 
32 1 1 -0.00407711 -0.0344005 0.0170441 0 0 0 -0.00539293 -0.0103399 -0.0314535 0.0260152 -0.00354067 -0.00858478 5.00428 7.45426 -2.02344 0.004 300 0 
128 1 1 0.00373729 -0.0332335 0.0182363 0 0 0 -0.00905226 -0.00639145 -0.0131207 -0.00291608 0.00639217 -0.0111593 -1.01277 -5.17873 -1.89123 0.004 300 0 
88 1 1 0.0113899 -0.03055 0.0177782 0 0 0 0.00727759 -0.0131483 0.0102355 -0.00537795 -0.0049599 0.0145461 -0.785644 0.112589 -0.393396 0.004 300 0 
137 1 1 0.0206709 -0.0338669 0.0155563 0 0 0 -0.00034938 0.007606 0.00983996 0.00479949 -0.0101561 0.00202893 -0.527066 -1.3168 -0.135077 0.004 300 0 
154 1 1 0.0339704 -0.0311513 0.018187 0 0 0 -0.000815048 0.00137179 0.00284134 0.00142314 -0.00775268 -0.0148955 0.697461 1.85883 -1.33376 0.004 300 0 
52 1 1 -0.0320433 -0.0253136 0.0159566 0 0 0 0.00398272 0.00584182 0.00848439 -0.0140264 0.0118782 0.0167398 -1.45432 2.99961 -4.25326 0.004 300 0 
80 1 1 -0.00971963 -0.026529 0.0176798 0 0 0 0.0130425 -0.00414758 -0.00251016 0.00706855 0.00224294 -0.0117445 1.80123 2.0458 -0.828325 0.004 300 0 
125 1 1 -0.000854877 -0.0268243 0.0173941 0 0 0 -0.00575177 -0.00460895 -0.0353072 -0.0421823 -0.00651637 -0.0116284 4.55615 0.0577362 0.569216 0.004 300 0 
72 1 1 0.017969 -0.0264077 0.0159942 0 0 0 -0.0174661 0.00157557 -0.0216039 0.00746436 -0.00898442 -0.00761434 -1.26902 0.34557 1.48853 0.004 300 0 
34 1 1 0.0268744 -0.0288274 0.0156703 0 0 0 -0.000173152 0.00490211 -0.00594062 0.00224981 0.00831857 -0.00726273 -5.59056 -3.50905 0.817184 0.004 300 0 
218 1 1 -0.0395682 -0.0235299 0.0177793 0 0 0 -0.00117275 -0.000460832 -0.00659185 -0.000622448 0.0108187 0.0161856 -0.906323 -3.96049 2.97291 0.004 300 0 
70 1 1 -0.0248433 -0.0229851 0.0183555 0 0 0 0.0172401 -0.00161162 -0.0035238 0.00405537 0.0127451 -0.0141518 2.96264 0.194043 0.654028 0.004 300 0 
132 1 1 -0.0172309 -0.0242055 0.0165043 0 0 0 0.011718 -0.00383302 -0.00947075 0.0160479 -0.00604137 -0.0193328 1.9561 -2.85473 0.20464 0.004 300 0 
86 1 1 -0.00503919 -0.0201836 0.0185737 0 0 0 -0.00731945 0.00106123 0.00656849 0.00887159 -0.0111079 0.00646303 -1.09395 1.93328 3.20407 0.004 300 0 
196 1 1 0.00677801 -0.0240844 0.017433 0 0 0 0.0469201 0.0179902 -0.0211365 -0.0130838 0.0028958 0.0169431 0.511077 6.42912 -4.14696 0.004 300 0 
362 1 1 0.0243202 -0.0214913 0.0173068 0 0 0 0.00360859 0.00400176 0.00493621 -0.0017878 0.0101662 -0.00105717 8.40033 3.14616 -1.89222 0.004 300 0 
49 1 1 0.0387481 -0.0248299 0.0180309 0 0 0 -0.000216388 -0.00421532 0.00226994 -0.00495551 -0.0106125 -0.00841562 0.138371 1.24116 -0.0292891 0.004 300 0 
173 1 1 -0.0430814 -0.0163821 0.0177991 0 0 0 0.0028016 0.00148508 -0.00915485 -0.0073733 -0.00135665 -0.00124001 -0.27319 1.95419 -0.205338 0.004 300 0 
50 1 1 -0.0294772 -0.0166443 0.0182969 0 0 0 0.00140307 -0.0213422 -0.0177322 -0.00574209 0.0327535 -0.0101389 -4.51809 0.545408 2.53203 0.004 300 0 
202 1 1 -0.0137189 -0.0170907 0.0165149 0 0 0 -0.00959369 0.000476162 -0.00279153 0.00799868 0.00906792 0.00823475 -4.18042 2.11549 2.12955 0.004 300 0 
129 1 1 0.0134731 -0.019854 0.016524 0 0 0 0.0323723 0.0317721 -0.0258232 0.0116085 -0.00769317 -0.0092971 -3.32326 3.5423 -0.907805 0.004 300 0 
42 1 1 0.0197539 -0.0149912 0.0171454 0 0 0 0.0235537 0.021175 0.0188776 -0.00618264 0.00459411 -0.0159636 -3.36886 -2.47884 -5.12965 0.004 300 0 
82 1 1 0.0289461 -0.0151163 0.016033 0 0 0 0.00155099 0.00589905 0.014645 -0.00906985 0.0120022 0.00696163 0.817538 1.03202 1.15322 0.004 300 0 
1 1 1 0.0424637 -0.0178295 0.017876 0 0 0 -0.00484265 -0.0185619 -0.0156438 -0.0032344 -0.0142635 -0.00329483 -0.95398 1.73038 0.123819 0.004 300 0 
168 1 1 -0.0224717 -0.0134232 0.0164163 0 0 0 0.0212058 -0.0500871 -0.00822314 -0.0246048 0.0582932 0.0267362 2.45242 -1.55246 5.50467 0.004 300 0 
121 1 1 -0.00549007 -0.012374 0.0172811 0 0 0 -0.0160694 -0.000905551 -0.000996832 0.0194876 -0.0193028 0.0101021 -0.0360125 4.60706 -0.889979 0.004 300 0 
28 1 1 0.00747405 -0.0143648 0.0183773 0 0 0 0.00232921 0.0153861 -0.00495078 -0.0107794 0.00695575 0.0307951 -2.79691 -3.80531 -0.238539 0.004 300 0 
60 1 1 0.0375082 -0.0117527 0.0163311 0 0 0 0.0122453 -0.00577863 -0.0135446 0.00192864 -0.00286151 0.0121004 1.35574 -0.509287 0.0166496 0.004 300 0 
135 1 1 -0.0450275 -0.00865542 0.017748 0 0 0 -0.109605 -0.0242695 0.00609294 0.00673843 0.0175973 -0.0101267 1.48863 -0.663921 -0.835816 0.004 300 0 
190 1 1 -0.0292665 -0.00892553 0.0166249 0 0 0 -0.0240447 -0.0268066 -0.0358339 -0.00634556 0.0158561 -0.0192928 0.166856 -0.240942 4.085 0.004 300 0 
7 1 1 -0.0201404 -0.00584661 0.0163064 0 0 0 -0.0372493 -0.0344529 -0.00844793 -0.00928858 0.00669854 0.0019147 -6.38889 -1.50309 4.12656 0.004 300 0 
145 1 1 -0.0119598 -0.00806414 0.0160679 0 0 0 -0.0270375 -0.00464809 0.00744674 0.010932 -0.0104166 0.00638241 -5.53895 -1.47309 4.33207 0.004 300 0 
186 1 1 0.00168305 -0.00903433 0.0170813 0 0 0 -0.0193398 0.014666 -0.0146602 0.0311795 -0.0187821 0.0335875 2.04744 -0.271376 2.46153 0.004 300 0 
56 1 1 0.0138676 -0.00966207 0.0173058 0 0 0 0.0210737 0.0205426 -0.00110376 -0.00646921 -0.000766841 -0.00260657 1.60038 0.362228 6.839 0.004 300 0 
191 1 1 0.0217004 -0.00724273 0.0169692 0 0 0 -0.00256407 0.0133216 0.004035 0.00097477 0.00651792 -0.0164307 -2.39075 -2.31065 -1.85425 0.004 300 0 
208 1 1 0.031105 -0.00559023 0.0174304 0 0 0 0.0147509 0.00806748 -0.0060176 0.016579 -0.0182773 0.0136833 -0.394241 2.34197 1.97392 0.004 300 0 
92 1 1 0.0450691 -0.00939273 0.0170983 0 0 0 0.00166719 0.00987413 -0.0035421 -0.00580714 -0.0137582 0.00380315 -2.73617 -0.300687 -1.59925 0.004 300 0 
192 1 1 -0.0460823 -0.000765743 0.0176746 0 0 0 -0.0110641 0.00099442 -0.00659977 -0.0203404 -0.0217322 -0.00144791 7.19525 -1.55838 -2.26313 0.004 300 0 
462 1 1 -0.0269015 -0.00141214 0.0174909 0 0 0 -0.0199015 -0.0157137 -0.0122999 0.0147485 0.0121657 -0.0011986 5.59162 -6.4554 -4.96768 0.004 300 0 
450 1 1 -0.0125885 -0.00067925 0.0187964 0 0 0 -0.0162001 0.0053812 -0.0132705 0.0282313 0.00530928 -0.0218552 0.743878 -12.2426 -11.9792 0.004 300 0 
111 1 1 -0.00536102 -0.00458878 0.0187864 0 0 0 -0.000987991 -0.00224896 -0.0464591 -0.00021071 -0.00919636 -0.000589182 -5.62084 2.24988 -0.371749 0.004 300 0 
622 1 1 0.000899338 -0.000943154 0.0156179 0 0 0 0.00141102 0.0128571 -0.0361995 0.00568189 0.00037173 -0.0171244 6.41659 -5.73172 -1.76413 0.004 300 0 
106 1 1 0.00803054 -0.00438719 0.0162083 0 0 0 -0.00557846 -0.00908332 -0.0013076 -0.00488312 0.00352714 0.0148574 -4.73053 -5.64814 -6.34049 0.004 300 0 
651 1 1 0.0253463 -0.000180809 0.0172359 0 0 0 0.0084877 0.000141336 -0.00916505 -0.00947164 -0.0132227 -0.0114263 -0.398302 -3.05499 1.18205 0.004 300 0 
133 1 1 0.0388171 -0.00362459 0.016697 0 0 0 0.020052 -0.0210555 0.00436637 -0.00383561 -0.00253144 -0.0108224 -3.02511 -1.20847 1.72145 0.004 300 0 
164 1 1 0.0460184 -0.00197459 0.0197444 0 0 0 -0.000366428 0.00769985 0.00851207 -0.00489616 -0.00986298 0.00976814 3.8161 0.424839 1.06136 0.004 300 0 
127 1 1 -0.00235377 -0.0460485 0.0236007 0 0 0 0.00110683 -0.00232187 0.0104362 0.00950202 -0.00714688 -0.00131688 4.40762 0.749492 1.21139 0.004 300 0 
126 1 1 -0.0155482 -0.04338 0.0210523 0 0 0 0.0151231 -0.00207923 -0.0170084 0.00734453 -0.00332236 -0.00310972 -2.1011 -1.17925 3.84775 0.004 300 0 
143 1 1 0.00420641 -0.0416482 0.0230038 0 0 0 -0.0174326 0.030377 -0.00325046 0.00855898 0.00668212 -0.0107796 -3.97052 0.767497 2.37391 0.004 300 0 
110 1 1 -0.027477 -0.0369568 0.023803 0 0 0 -0.0101313 0.00646364 -0.0158815 -0.00414475 0.0115712 0.0170581 2.39704 5.31048 -0.268446 0.004 300 0 
371 1 1 -0.00713035 -0.0397899 0.0232563 0 0 0 0.00316163 -0.00253038 0.0109144 0.00310621 -0.00905878 0.0015388 -3.39227 -4.23176 -3.50295 0.004 300 0 
114 1 1 0.0110827 -0.0376774 0.023054 0 0 0 0.019164 -0.0024146 -0.00307891 0.0393599 -0.00573475 -0.00764492 -1.83693 1.18683 -3.23852 0.004 300 0 
85 1 1 -0.0159938 -0.0307473 0.0208342 0 0 0 -0.00652517 -0.0081165 -0.0240496 0.0245591 -0.00527523 0.0310597 -1.29619 2.09849 0.272321 0.004 300 0 
390 1 1 -0.00841344 -0.0319929 0.0232619 0 0 0 0.0264963 -0.0108686 -0.0218294 -0.0172233 0.017895 -0.0233758 -3.03149 1.2725 -1.38817 0.004 300 0 
182 1 1 -0.000620914 -0.0309179 0.0244812 0 0 0 0.00465762 -0.0162544 -0.00574737 0.0188295 -0.00544804 0.00413668 0.375617 1.37792 -0.921425 0.004 300 0 
216 1 1 0.00733701 -0.030938 0.024932 0 0 0 0.00817221 0.0121122 -0.03802 0.00102884 -0.00823775 -0.0102973 -7.55796 5.78046 1.56545 0.004 300 0 
149 1 1 0.0152802 -0.0306672 0.0247454 0 0 0 0.0132003 0.0101263 0.00357268 -0.00505439 -0.0119481 -0.00929578 -2.15246 -8.05152 -1.2898 0.004 300 0 