ITEM: TIMESTEP
1600
ITEM: NUMBER OF ATOMS
890
ITEM: BOX BOUNDS mm mm mm
-0.05 0.05
-0.05 0.05
0 0.15
ITEM: ATOMS id type type x y z ix iy iz vx vy vz fx fy fz omegax omegay omegaz radius f_Temp[0] f_heatFlux[0] 
59 1 1 -0.00657751 -0.0409281 0.00420194 0 0 0 -0.133065 -0.207908 -0.130651 0 0 -0.0210391 16.2586 -12.6989 4.95763 0.004 300 0 
158 1 1 0.0117514 -0.0407987 0.00394219 0 0 0 0.0142531 0.0737473 0.000399541 -0.065178 0.15807 -0.29681 13.1164 7.45979 -5.17038 0.004 300 0 
98 1 1 0.021502 -0.0388498 0.00423949 0 0 0 0.0449145 0.208852 -0.239812 0 0 -0.0210391 21.2765 17.0494 -8.60489 0.004 300 0 
15 1 1 -0.0128612 -0.0357526 0.00458148 0 0 0 0.0235478 -0.334441 -0.178966 0 0 -0.0210391 17.3182 12.6636 -7.87718 0.004 300 0 
74 1 1 0.00435925 -0.032942 0.00397457 0 0 0 0.224461 -0.154618 -0.0802891 0.0500838 -0.104536 -0.512016 -7.72494 3.99144 7.97482 0.004 300 0 
195 1 1 -0.00584875 -0.0269584 0.0040725 0 0 0 -0.210045 0.184035 0.0715568 0.0181227 -0.000341264 -0.0154754 -8.55251 9.37021 -11.0748 0.004 300 0 
113 1 1 0.016414 -0.0271811 0.00391146 0 0 0 0.187333 -0.236864 -0.295757 -0.0151753 -0.00589792 0.373459 4.47475 -9.71477 5.52369 0.004 300 0 
161 1 1 0.0280263 -0.0296804 0.00397489 0 0 0 -0.0940108 0.138079 -0.0015025 -0.117343 0.0335289 -0.088776 -0.404411 27.1201 -14.5887 0.004 300 0 
148 1 1 -0.0131286 -0.0231525 0.00407272 0 0 0 -0.109084 0.0181017 0.106732 0.177648 0.0750211 -0.253353 -3.10687 -26.1834 -2.34298 0.004 300 0 
183 1 1 0.0382964 -0.02582 0.00398826 0 0 0 -0.305711 -0.0633642 0.00328173 -0.422439 0.316572 -0.00715454 2.46376 9.59001 7.66036 0.004 300 0 
162 1 1 -0.0395166 -0.021616 0.00429939 0 0 0 -0.347457 -0.257362 0.0418575 0 0 -0.0210391 10.9745 -8.46016 9.65049 0.004 300 0 
8 1 1 -0.0298205 -0.0216571 0.00384416 0 0 0 -0.422017 -0.00466864 -0.230716 0.0334986 -0.00237844 0.65062 10.0144 16.7515 9.22479 0.004 300 0 
144 1 1 -0.00254245 -0.0184122 0.0041147 0 0 0 0.027658 0.0914288 0.0473496 0.00458517 -0.00242394 -0.0213326 18.3989 6.75112 -6.07593 0.004 300 0 
95 1 1 0.0166722 -0.0192436 0.00400672 0 0 0 0.0223203 -0.0344874 0.020188 0.00375273 0.0138259 -0.0296798 -9.30302 7.02655 0.836181 0.004 300 0 
219 1 1 0.0431087 -0.016089 0.00385175 0 0 0 0.0363292 0.369048 0.0500293 0.180844 0.0628469 0.246931 -9.22986 1.16873 -9.99431 0.004 300 0 
213 1 1 -0.00967379 -0.0148034 0.0041934 0 0 0 -0.0083005 0.0061622 -0.194529 -0.00458517 0.00242394 -0.0207457 -12.256 -13.4713 7.24994 0.004 300 0 
26 1 1 0.00775345 -0.0117317 0.00389915 0 0 0 -0.0886274 0.00566159 -0.189967 -0.680855 -0.333594 -0.254992 -10.1063 1.07065 -10.0392 0.004 300 0 
194 1 1 0.0241518 -0.0125312 0.0037881 0 0 0 -0.137317 0.0948989 0.10127 0.242783 -0.204807 0.0481271 -8.03415 -7.27418 -7.30329 0.004 300 0 
124 1 1 -0.0252737 -0.00796327 0.00404322 0 0 0 -0.271327 0.134371 0.0386812 -0.00153135 -0.000339989 -0.0234543 -10.9379 32.3341 -2.23759 0.004 300 0 
171 1 1 -0.000592923 -0.00614304 0.00386935 0 0 0 -0.101722 -0.165616 -0.00155281 0.00775775 0.481085 -0.179489 -4.46894 -1.8776 19.5961 0.004 300 0 
221 1 1 0.00813813 -0.00333903 0.00399185 0 0 0 0.021923 0.148607 0.0345595 0.0207684 -0.0283196 -0.451418 -11.6538 1.03639 2.32957 0.004 300 0 
21 1 1 0.0192178 -0.00641817 0.0039596 0 0 0 0.0969716 0.0186615 0.0481526 -0.249923 0.175682 0.00300406 1.8412 6.10078 4.77314 0.004 300 0 
140 1 1 -0.0328971 -0.00465146 0.00386986 0 0 0 0.0178387 -0.046195 -0.325753 -0.0132776 0.0271016 0.582548 -9.69414 -5.87282 10.3934 0.004 300 0 
207 1 1 -0.0169613 -0.00126194 0.00381455 0 0 0 -0.18237 0.00905352 0.0126898 0.0162546 -0.0371854 0.417813 4.28634 3.81239 4.77054 0.004 300 0 
69 1 1 -0.00856162 -0.00329842 0.0037919 0 0 0 -0.0397129 0.0577804 0.0496714 0.194152 -0.0813575 0.458341 9.39392 -8.01594 2.46581 0.004 300 0 
17 1 1 0.0283328 -0.00496219 0.00376358 0 0 0 0.00714706 -0.0651282 0.183645 0.00668664 0.00476242 0.806651 13.333 7.90386 -8.01381 0.004 300 0 
155 1 1 0.0363713 -0.00219702 0.00421281 0 0 0 -0.084425 0.152172 0.0508026 0 0 -0.0210391 -1.51532 -0.292401 -9.16545 0.004 300 0 
170 1 1 -0.0179948 -0.042308 0.00546523 0 0 0 -0.0630511 0.147824 0.16867 0 0 -0.0210391 19.6113 -28.6947 6.70275 0.004 300 0 
83 1 1 -0.00228445 -0.0456468 0.00931462 0 0 0 -0.103884 -0.421262 0.0706253 0 0 -0.0210391 -30.7186 6.66304 -4.16306 0.004 300 0 
116 1 1 0.00189927 -0.0411104 0.00416892 0 0 0 0.0666716 0.0287981 0.274332 0 0 -0.0210391 8.62933 -8.6127 8.88132 0.004 300 0 
30 1 1 -0.0208523 -0.033914 0.00427372 0 0 0 -0.0146546 -0.115471 -0.177153 0.314995 -0.134258 -0.587063 11.5844 -5.98534 -2.83315 0.004 300 0 
215 1 1 -0.00311321 -0.0338114 0.00708824 0 0 0 0.0369757 -0.0274854 -0.301028 -0.00150798 0.00356627 -0.0224164 9.97876 17.316 -3.72161 0.004 300 0 
163 1 1 0.0338236 -0.0314511 0.00903135 0 0 0 0.0410344 0.0432359 0.00215532 -0.180623 0.0576033 -0.138434 -10.2961 6.15787 -17.3463 0.004 300 0 
77 1 1 0.00164943 -0.0251559 0.00619289 0 0 0 0.0530021 -0.0362154 -0.172954 -0.225586 -0.0380523 0.0526306 6.91808 33.2261 -4.29796 0.004 300 0 
24 1 1 0.00906849 -0.0238942 0.0038458 0 0 0 0.19917 0.0566444 0.234246 0.191743 0.0316541 0.251463 -8.92641 20.6077 9.25938 0.004 300 0 
76 1 1 0.0246421 -0.020872 0.00387176 0 0 0 0.0155372 -0.0315144 -0.229642 -0.00139338 0.00756989 0.214065 -9.42805 -4.24797 -14.9719 0.004 300 0 
12 1 1 -0.0215972 -0.0218489 0.00392948 0 0 0 -0.243341 -0.0914226 0.164605 -0.479919 -0.266379 -0.681602 -15.077 8.67321 -0.632864 0.004 300 0 
33 1 1 -0.00976942 -0.0197858 0.0105982 0 0 0 -0.0063635 0.0749022 0.0437716 0.00642832 0.275455 -0.361213 -8.03997 4.81097 -0.351001 0.004 300 0 
100 1 1 0.0317505 -0.0171702 0.00403842 0 0 0 0.145666 -0.170822 0.00213145 0 0 -0.0210391 -0.0736909 14.1613 0.848517 0.004 300 0 
211 1 1 0.00181803 -0.0109486 0.00952871 0 0 0 -0.000968479 -0.0206992 -0.216899 0.209438 -0.462554 0.158112 -6.21297 -2.37996 3.31025 0.004 300 0 
65 1 1 -0.0435154 -0.00737486 0.00385982 0 0 0 -0.368814 -0.131698 0.04072 -0.0240841 -0.0786531 0.388183 10.5458 -1.10196 -5.46579 0.004 300 0 
39 1 1 -0.0166128 -0.00922372 0.00389259 0 0 0 -0.117969 0.140145 0.0452654 -0.0309907 -0.131882 0.16607 23.5727 7.71474 6.70606 0.004 300 0 
217 1 1 0.0130351 -0.0441261 0.0108974 0 0 0 0.0424101 -0.00234703 0.0636815 0.266202 -0.215436 0.311414 -20.0113 -7.03431 -2.30338 0.004 300 0 
185 1 1 -0.0119458 -0.0393751 0.0124121 0 0 0 -0.427518 -0.111943 0.108893 -0.000231895 -0.00049852 -0.0214134 -24.2769 -12.9158 -7.55755 0.004 300 0 
117 1 1 0.0200508 -0.040729 0.0126027 0 0 0 0.106434 -0.254175 0.0438088 0.0263739 0.0144753 -0.0145601 9.33626 8.99598 19.5486 0.004 300 0 
169 1 1 -0.0248603 -0.032251 0.0107025 0 0 0 -0.250149 -0.0133871 -0.203573 -0.339883 0.13697 0.518797 -20.2457 5.1237 2.54278 0.004 300 0 
23 1 1 0.0118291 -0.0327241 0.00743914 0 0 0 0.114894 -0.169826 -0.339872 0.0424412 0.322131 -0.56481 -2.00086 16.7943 5.04559 0.004 300 0 
198 1 1 0.0217597 -0.0310956 0.00902066 0 0 0 -0.0457325 -0.135696 0.0384168 0.171905 0.0129539 -0.229561 15.39 -10.9176 20.1316 0.004 300 0 
118 1 1 -0.030559 -0.0314269 0.00518012 0 0 0 -0.262029 -0.231297 -0.551628 0.0248876 -0.00271235 0.00514863 6.22978 0.246017 6.0319 0.004 300 0 
188 1 1 -0.0108902 -0.0297529 0.009855 0 0 0 -0.538191 -0.315597 -0.178216 0 0 -0.0210391 1.3492 -17.7296 6.80741 0.004 300 0 
214 1 1 -0.0347916 -0.0225671 0.0113078 0 0 0 -0.23753 -0.229929 -0.0280934 -0.100523 -0.0369238 -0.153162 -25.9789 17.2988 9.53245 0.004 300 0 
101 1 1 -0.017858 -0.0247316 0.0101929 0 0 0 -0.0496941 0.167184 -0.151642 0.0260334 -0.254871 0.595252 6.10355 -2.66952 14.9167 0.004 300 0 
179 1 1 0.0064482 -0.0226924 0.0121556 0 0 0 -0.00748394 -0.0228178 0.108935 -0.214212 -0.267944 0.0417534 13.2566 1.89405 0.0490733 0.004 300 0 
91 1 1 0.0169942 -0.0239201 0.0113358 0 0 0 -0.156033 -0.110045 -0.0614486 0 0 -0.0210391 -6.51055 16.3405 -4.44832 0.004 300 0 
220 1 1 -0.0178205 -0.0163166 0.00792046 0 0 0 0.140073 -0.255146 -0.357404 0.278926 0.448308 0.318801 -16.5933 -0.754394 -12.8264 0.004 300 0 
5 1 1 0.0110052 -0.0170455 0.00915922 0 0 0 -0.0239589 -0.0708382 0.137699 0.206952 0.272825 -0.140027 14.9815 -5.60953 -3.47669 0.004 300 0 
167 1 1 0.0382699 -0.0193076 0.00914393 0 0 0 0.185658 -0.301498 -0.0237555 0.109876 -0.20822 -0.182921 -1.2547 3.51136 9.24932 0.004 300 0 
102 1 1 -0.0355088 -0.0121997 0.00524577 0 0 0 -0.0219041 -0.129168 -0.363174 -0.0838766 -0.0420622 -0.174281 -3.24253 4.33505 8.37555 0.004 300 0 
53 1 1 -0.0268345 -0.0154758 0.00823131 0 0 0 -0.0332566 -0.176384 -0.252553 -0.114599 0.0196824 -0.188444 -30.4635 -17.2685 -1.25414 0.004 300 0 
19 1 1 -0.00612177 -0.00911659 0.00864378 0 0 0 -0.0149956 -0.24061 0.104806 -0.164672 -0.0570451 0.087178 -13.6398 13.0466 5.99916 0.004 300 0 
96 1 1 0.0190904 -0.0140977 0.0096049 0 0 0 -0.169192 0.0708353 0.0772014 -0.030534 -0.162932 0.212668 -8.05001 -1.25317 17.3098 0.004 300 0 
136 1 1 0.0280438 -0.0134097 0.0104935 0 0 0 0.0116473 0.0755069 0.0354125 -0.0632753 0.168054 0.118224 35.2467 24.9434 8.3835 0.004 300 0 
37 1 1 0.0345824 -0.00985047 0.0064325 0 0 0 -0.0198164 0.123968 -0.232502 0 0 -0.0210391 -11.0624 -0.363243 12.1572 0.004 300 0 
146 1 1 -0.013195 -0.0052019 0.0098344 0 0 0 -0.00695889 -0.0460588 -0.0331463 -0.237636 0.377449 0.1465 -12.3034 0.316688 7.93812 0.004 300 0 
18 1 1 0.00769165 -0.00320942 0.0118135 0 0 0 0.0411582 0.084494 -0.0371905 -0.553047 -0.901026 -0.0499404 -2.45649 17.0438 -0.527278 0.004 300 0 
200 1 1 0.0131939 -0.00892138 0.00854215 0 0 0 0.0485648 0.032611 -0.149704 0.476511 0.375391 0.538642 6.50471 8.98828 -14.6806 0.004 300 0 
176 1 1 -0.0369978 -0.00328795 0.0107181 0 0 0 -0.0676815 -0.02113 0.0126752 0.0180769 -0.0219666 0.0246874 -0.0472029 -5.36269 13.9586 0.004 300 0 
119 1 1 -0.0286173 -0.00104723 0.0113667 0 0 0 -0.0184022 0.286437 0.00661765 0 0 -0.0210391 4.67609 24.1793 -11.4082 0.004 300 0 
223 1 1 0.00540039 -0.0428402 0.0124809 0 0 0 0.118666 -0.335286 -0.153443 -0.230908 0.0507912 0.0301781 -20.911 -10.1327 -0.0894334 0.004 300 0 
152 1 1 -0.00213809 -0.038617 0.0135038 0 0 0 0.0126066 0.104505 -0.0185609 0.0147135 0.0399536 -0.143782 -12.8765 -0.278255 -8.19303 0.004 300 0 
47 1 1 0.00325679 -0.0315536 0.0115868 0 0 0 0.0390124 -0.195922 -0.347335 -0.0525815 0.106758 0.536799 -6.53553 3.28806 1.11619 0.004 300 0 
153 1 1 0.00897639 -0.0288294 0.0165438 0 0 0 -0.110389 -0.18518 -0.14506 0.022501 -0.0493568 0.017998 12.7919 1.57987 -4.91663 0.004 300 0 
75 1 1 0.0304138 -0.0250148 0.0118591 0 0 0 0.0678817 0.257414 -0.302648 -0.0938411 0.264699 0.0119076 -23.2214 2.33732 4.32797 0.004 300 0 
9 1 1 -0.0261528 -0.02393 0.0110395 0 0 0 0.0729887 -0.252297 -0.155101 -0.0106494 0.00962142 -0.00512289 -17.5397 9.54023 2.06985 0.004 300 0 
40 1 1 -0.00164376 -0.0219851 0.0133594 0 0 0 0.016363 0.181832 -0.349257 -0.285627 -0.228431 -0.208125 12.5624 -3.595 -10.2848 0.004 300 0 
11 1 1 0.0240947 -0.0201818 0.0116333 0 0 0 -0.0550338 0.0864918 0.206472 -0.106916 -0.0484484 0.282914 -8.38427 2.33172 8.99408 0.004 300 0 
4 1 1 -0.022618 -0.015968 0.0148982 0 0 0 -0.253037 0.0257638 -0.186174 0.114599 -0.0196824 0.146366 3.42152 -8.00886 -0.737527 0.004 300 0 
10 1 1 0.00321431 -0.0161302 0.0153306 0 0 0 -0.095553 -0.217034 0.111177 0.0385578 0.159142 0.0830493 -1.50409 -16.2665 -3.82713 0.004 300 0 
71 1 1 -0.0319487 -0.00997882 0.011945 0 0 0 -0.149344 0.0522906 -0.373089 0.0838766 0.0420622 0.132202 7.04709 -17.1276 3.53266 0.004 300 0 
139 1 1 -0.0124028 -0.0122035 0.0132189 0 0 0 -0.103877 -0.105927 -0.00454863 0.0657981 -0.390772 0.174808 3.39277 -18.2267 1.81302 0.004 300 0 
187 1 1 0.00915011 -0.0110348 0.0161441 0 0 0 -0.206193 0.0721875 -0.25526 0.206502 0.166845 0.0174298 -7.68474 -5.52961 -1.26098 0.004 300 0 
84 1 1 0.0208304 -0.012356 0.0172196 0 0 0 0.0619026 -0.0107079 -0.0461626 -0.266814 0.405919 -0.352979 -5.88954 31.5517 7.99635 0.004 300 0 
197 1 1 -0.0455348 -0.00564404 0.014012 0 0 0 0.225689 0.0255954 -0.2447 0 0 -0.0210391 8.5697 7.13824 5.23687 0.004 300 0 
62 1 1 -0.020844 -0.00736334 0.0106516 0 0 0 0.0207878 -0.0515746 -0.0616354 -0.0966808 -0.444322 -0.033165 8.21792 15.2478 -4.06334 0.004 300 0 
79 1 1 -0.00643128 -0.00270837 0.0139526 0 0 0 0.100764 0.405155 -0.317084 -0.41556 0.358812 -0.342892 -6.338 3.26328 -1.14734 0.004 300 0 
63 1 1 0.0409567 -0.00458261 0.016271 0 0 0 0.230641 0.158015 -0.255539 0.0541168 0.00589564 -0.032189 -10.3334 7.4506 0.0803477 0.004 300 0 
31 1 1 0.0163869 -0.00358373 0.0135292 0 0 0 -0.016916 -0.0944923 -0.444822 0.0414482 0.0654147 0.0471242 6.36631 11.8926 11.2895 0.004 300 0 
156 1 1 0.0273155 -0.00560825 0.0119361 0 0 0 -0.0840745 0.00638395 -0.365737 -0.0213241 0.073969 0.0261938 9.42593 6.01142 -4.44652 0.004 300 0 
120 1 1 0.0109738 -0.0364926 0.0141811 0 0 0 -0.215284 0.0699438 -0.200066 0.0989732 -0.504115 0.23589 -17.9743 -9.74153 -6.13791 0.004 300 0 
58 1 1 -0.0168038 -0.0308105 0.0152336 0 0 0 -0.000231071 -0.147112 -0.34392 0.000111701 0.00036265 -0.0209729 37.2948 24.8362 -7.27781 0.004 300 0 
89 1 1 -0.00879904 -0.0334894 0.0167731 0 0 0 0.018452 -0.114319 -0.0242837 0.000231895 0.00049852 -0.0206648 9.2679 25.3542 -3.33079 0.004 300 0 
125 1 1 6.92169e-05 -0.0271899 0.0190731 0 0 0 -0.0762959 0.0586472 -0.411472 0.0322514 -0.0853109 0.0820874 17.7484 -16.3199 -4.68121 0.004 300 0 
41 1 1 0.0166135 -0.0311024 0.0150532 0 0 0 0.212048 -0.0747298 -0.378121 0.0134464 0.181229 0.223089 3.8749 5.57585 -2.66623 0.004 300 0 
46 1 1 -0.02993 -0.0205949 0.0172153 0 0 0 -0.0980135 0.0656671 -0.18609 0.637467 0.182158 -0.716424 -24.8205 2.79208 11.7756 0.004 300 0 
193 1 1 -0.0100427 -0.0249766 0.0164414 0 0 0 -0.0971762 -0.138958 -0.105704 0.0236601 -0.298183 0.307524 2.85288 5.63957 1.43916 0.004 300 0 
178 1 1 0.0277584 -0.0224753 0.0188597 0 0 0 0.0501976 0.0264591 -0.25863 -0.0603197 0.0663659 0.135499 24.6327 -7.42882 0.286033 0.004 300 0 
20 1 1 -0.00612428 -0.0163971 0.0171498 0 0 0 0.207791 -0.129099 -0.344049 0 0 -0.0210391 8.76615 10.2177 -0.829727 0.004 300 0 
54 1 1 0.0116308 -0.0189165 0.0172149 0 0 0 0.287127 0.190269 -0.285203 0 0 -0.0210391 13.2006 -0.62673 9.57163 0.004 300 0 
131 1 1 0.0334392 -0.0169949 0.0148325 0 0 0 0.0938137 -0.144699 -0.0693056 -0.0747173 -0.518524 -0.0379762 0.280469 3.59585 5.21568 0.004 300 0 
177 1 1 -0.039284 -0.015702 0.0138821 0 0 0 -0.326999 -0.212024 -0.53959 0 0 -0.0210391 6.64736 -6.102 5.58422 0.004 300 0 
57 1 1 -0.000301257 -0.0070622 0.0160272 0 0 0 -0.251651 0.0118272 -0.240018 0.446766 -0.0309152 0.0464879 11.544 -7.25043 0.410287 0.004 300 0 
103 1 1 0.0148641 -0.00830129 0.0212258 0 0 0 -0.167751 0.110965 -0.313807 0 0 -0.0210391 4.5333 13.2871 3.03306 0.004 300 0 
157 1 1 0.0331711 -0.00555396 0.0174929 0 0 0 0.128346 0.0697986 -0.344356 -0.0541168 -0.00589564 -0.00988925 2.86247 10.8896 4.97244 0.004 300 0 
184 1 1 -0.014447 -0.0032761 0.0176763 0 0 0 -0.147824 0.300394 -0.163367 0.0211996 -0.00922377 -0.0117442 19.5269 -13.2374 8.01694 0.004 300 0 
208 1 1 0.0234282 -0.0044941 0.0188109 0 0 0 0.139799 0.129482 0.00511898 0.0155526 -0.00523161 -0.0520332 -19.2967 14.163 5.18805 0.004 300 0 
222 1 1 -0.00309483 -0.041423 0.0208596 0 0 0 -0.0749859 -0.280654 -0.24779 -0.0433558 -0.17344 0.0381541 -10.6524 -0.615551 -1.30968 0.004 300 0 
150 1 1 -0.0171394 -0.0380781 0.0184723 0 0 0 -0.134398 -0.384903 -0.537736 -0.0431808 0.0112777 -0.0526658 10.011 -1.82494 -3.29025 0.004 300 0 
2 1 1 0.00454743 -0.0369502 0.0187149 0 0 0 -0.0240219 -0.000395232 -0.67334 -0.326766 -0.0121988 0.230196 0.523199 -0.939021 0.642952 0.004 300 0 
13 1 1 -0.0245082 -0.0315399 0.0188086 0 0 0 -0.0363135 -0.0979554 -0.559248 0 0 -0.0210391 -14.4908 15.1881 -0.555307 0.004 300 0 
48 1 1 0.0234188 -0.0290757 0.0203535 0 0 0 0.166012 -0.0539185 -0.367736 0 0 -0.0210391 -0.216367 8.58075 0.191642 0.004 300 0 
55 1 1 0.00650533 -0.0244188 0.022958 0 0 0 -0.019712 -0.0253895 -0.236682 0 0 -0.0210391 8.65703 5.3655 -1.81996 0.004 300 0 
210 1 1 0.0357759 -0.0220943 0.0215076 0 0 0 0.182874 -0.318174 -0.152466 0 0 -0.0210391 17.7842 -1.48853 -6.96488 0.004 300 0 
168 1 1 -0.0250535 -0.0174135 0.0230829 0 0 0 0.200519 0.187064 -0.256973 0 0 -0.0210391 -0.0604741 13.0782 7.51237 0.004 300 0 
104 1 1 -0.0161704 -0.0203105 0.0183989 0 0 0 -0.242634 0.0525987 -0.577808 0.022155 0.0697341 -0.20269 -3.61599 11.8181 -3.85485 0.004 300 0 
45 1 1 0.00183892 -0.017773 0.0231786 0 0 0 0.0427857 0.078112 -0.433491 -0.0714841 -0.0772256 -0.0409559 -8.43745 -0.148509 -1.77367 0.004 300 0 
112 1 1 0.0193234 -0.0197959 0.0193597 0 0 0 0.305275 -0.0384752 -0.493377 -0.0568253 -0.258402 0.0672754 0.433564 10.9714 1.65432 0.004 300 0 
82 1 1 0.0267067 -0.0149303 0.0217282 0 0 0 0.0720342 0.0797734 -0.245482 0.32364 -0.147517 0.222586 -4.23906 14.7889 7.31291 0.004 300 0 
180 1 1 0.0352099 -0.0125227 0.0209156 0 0 0 0.273736 0.0420046 -0.433243 0.159637 0.425262 0.614884 -2.57466 11.3657 2.32451 0.004 300 0 
135 1 1 -0.0364487 -0.00586535 0.0187822 0 0 0 -0.0682656 -0.124482 -0.115242 -0.101095 0.0066246 -0.0382793 14.3617 12.6075 4.49765 0.004 300 0 
130 1 1 -0.0286081 -0.00601967 0.0199454 0 0 0 0.00879107 0.141134 -0.351558 -0.0205042 0.0129873 -0.00476824 2.43117 15.383 -4.9411 0.004 300 0 
7 1 1 -0.0208443 -0.00763699 0.0198437 0 0 0 -0.0974137 -0.119744 -0.524118 0.121599 -0.0196119 -0.0200698 5.879 -3.32212 1.32606 0.004 300 0 
145 1 1 -0.00772101 -0.00603892 0.0209978 0 0 0 0.0889909 -0.0229999 -0.541836 -0.450409 0.210998 0.00702219 3.5143 4.74454 1.04564 0.004 300 0 
107 1 1 -0.0107625 -0.039487 0.0229829 0 0 0 0.130574 -0.0462541 -0.594196 0.0193604 -0.01616 -0.060168 -2.50503 2.15981 4.20377 0.004 300 0 
109 1 1 0.0177821 -0.0359031 0.023799 0 0 0 0 0 -0.692277 0 0 -0.0210391 0 0 0 0.004 300 0 
151 1 1 -0.00155015 -0.0342656 0.0238327 0 0 0 -0.0413878 -0.128824 -0.40949 0.0286423 0.133486 0.0425107 6.66506 -0.556163 1.44205 0.004 300 0 
108 1 1 -0.0247812 -0.0287517 0.0263047 0 0 0 -0.0126393 0.152687 -0.183211 0 0 -0.0210391 -15.5392 -4.89127 1.07802 0.004 300 0 
6 1 1 -0.0143666 -0.0289184 0.022802 0 0 0 0.144121 -0.0155924 -0.326553 0 0 -0.0210391 -1.91435 -3.05353 1.2175 0.004 300 0 
160 1 1 -0.0342978 -0.0220677 0.0234194 0 0 0 -0.0776864 -0.0220446 -0.570681 -0.526295 -0.154856 0.790553 3.01881 -3.43847 1.30465 0.004 300 0 
132 1 1 -0.0177931 -0.022124 0.0259123 0 0 0 -0.0554423 0.0859511 -0.561669 -0.0522434 -0.0470062 0.172223 -3.63805 -0.343227 1.4124 0.004 300 0 
80 1 1 -0.00847786 -0.0227934 0.0240405 0 0 0 -0.0758475 0.0375487 -0.123475 0 0 -0.0210391 -16.8415 12.6832 -0.0161495 0.004 300 0 
34 1 1 0.0269501 -0.023486 0.0272203 0 0 0 -0.0673532 -0.0178419 -0.316645 0.343723 -0.133246 -0.151615 4.10784 3.48791 0.371338 0.004 300 0 
202 1 1 -0.0127823 -0.014906 0.0244772 0 0 0 0.0461448 0.12078 -0.527675 0 0 -0.0210391 -3.69406 4.89008 -2.55889 0.004 300 0 
43 1 1 -0.0337135 -0.0135999 0.0233596 0 0 0 0 0 -0.692277 0 0 -0.0210391 0 0 0 0.004 300 0 
186 1 1 -0.00137155 -0.0099819 0.0232831 0 0 0 0.0350451 0.0334574 -0.576079 0.336694 -0.394613 0.428163 -5.44128 -1.78341 2.69894 0.004 300 0 
159 1 1 0.00721029 -0.0120188 0.024266 0 0 0 0.00822776 0.00889723 -0.689921 0.0714841 0.0772256 -0.00112234 -0.276527 0.26407 -0.0315357 0.004 300 0 
42 1 1 0.0201566 -0.0126061 0.0258036 0 0 0 0.101759 -0.0897138 -0.553326 0 0 -0.0210391 2.79717 5.22171 1.29262 0.004 300 0 
60 1 1 0.0263329 -0.00553636 0.0262271 0 0 0 0.050117 -0.0195293 -0.428824 0 0 -0.0210391 0.405179 8.42989 0.547302 0.004 300 0 
164 1 1 0.0393979 -0.00754613 0.0255951 0 0 0 0 0 -0.692277 0 0 -0.0210391 0 0 0 0.004 300 0 
106 1 1 0.0044526 -0.00375413 0.0218047 0 0 0 0.139164 0.121993 -0.44198 0 0 -0.0210391 -3.17335 8.82387 -2.53568 0.004 300 0 
191 1 1 0.0173495 -0.00326879 0.0280446 0 0 0 0.168383 -0.102322 -0.274015 -0.0145496 0.0430837 -0.0214405 -17.6496 0.923177 11.4931 0.004 300 0 
199 1 1 -0.00859633 -0.038923 0.0306252 0 0 0 0.00206861 0.000261223 -0.686559 0.023819 0.00396562 0.050157 -0.0935536 -0.26285 0.0458175 0.004 300 0 
93 1 1 0.0100122 -0.0350836 0.028859 0 0 0 0 0 -0.692277 0 0 -0.0210391 0 0 0 0.004 300 0 
64 1 1 0.0227838 -0.0334236 0.0296734 0 0 0 0 0 -0.692277 0 0 -0.0210391 0 0 0 0.004 300 0 
85 1 1 -0.0113263 -0.0283043 0.0308757 0 0 0 0 0 -0.692277 0 0 -0.0210391 0 0 0 0.004 300 0 
88 1 1 0.0123054 -0.0272559 0.0283256 0 0 0 0.199546 -0.124593 -0.39684 0 0 -0.0210391 1.20334 8.54344 2.83007 0.004 300 0 
86 1 1 -0.00282682 -0.0195276 0.0296604 0 0 0 -0.0468753 0.0253869 -0.227123 -0.456987 -0.309718 -0.690016 -9.24643 28.3204 -1.66159 0.004 300 0 
72 1 1 0.0199608 -0.0207233 0.02947 0 0 0 -0.0798426 0.0307943 -0.660712 -0.343723 0.133246 0.109536 -1.11776 -2.55284 -0.336817 0.004 300 0 
49 1 1 0.031817 -0.025208 0.0335036 0 0 0 0.22703 -0.0405118 -0.324758 0 0 -0.0210391 3.49923 11.9694 0.813424 0.004 300 0 
52 1 1 -0.0290787 -0.0203443 0.0299787 0 0 0 -0.133987 -0.0865887 -0.390418 0 0 -0.0210391 2.31669 -1.02902 0.745104 0.004 300 0 
1 1 1 0.0328584 -0.0172277 0.0278621 0 0 0 0 0 -0.692277 0 0 -0.0210391 0 0 0 0.004 300 0 
29 1 1 -0.0180767 -0.01021 0.0299774 0 0 0 0 0 -0.692277 0 0 -0.0210391 0 0 0 0.004 300 0 
121 1 1 -0.00856102 -0.0100226 0.0298191 0 0 0 0 0 -0.692277 0 0 -0.0210391 0 0 0 0.004 300 0 
87 1 1 -0.0332252 -0.00543356 0.0272221 0 0 0 0 0 -0.692277 0 0 -0.0210391 0 0 0 0.004 300 0 
190 1 1 -0.0258626 -0.00856344 0.0288359 0 0 0 0 0 -0.692277 0 0 -0.0210391 0 0 0 0.004 300 0 
78 1 1 0.00429639 -0.00779227 0.0305706 0 0 0 0 0 -0.692277 0 0 -0.0210391 0 0 0 0.004 300 0 
105 1 1 -0.0170678 -0.0366525 0.0318954 0 0 0 0 0 -0.692277 0 0 -0.0210391 0 0 0 0.004 300 0 
142 1 1 -0.000740947 -0.0390462 0.0322915 0 0 0 0 0 -0.692277 0 0 -0.0210391 0 0 0 0.004 300 0 
174 1 1 -0.0243978 -0.0292841 0.034455 0 0 0 0 0 -0.692277 0 0 -0.0210391 0 0 0 0.004 300 0 
32 1 1 -0.00349762 -0.029758 0.0347683 0 0 0 0 0 -0.692277 0 0 -0.0210391 0 0 0 0.004 300 0 
137 1 1 0.015855 -0.0296375 0.0354536 0 0 0 0 0 -0.692277 0 0 -0.0210391 0 0 0 0.004 300 0 
204 1 1 -0.0142171 -0.0206466 0.034011 0 0 0 0 0 -0.692277 0 0 -0.0210391 0 0 0 0.004 300 0 
196 1 1 0.00377494 -0.0248288 0.0335259 0 0 0 0 0 -0.692277 0 0 -0.0210391 0 0 0 0.004 300 0 
173 1 1 -0.0372427 -0.0167241 0.0349453 0 0 0 0 0 -0.692277 0 0 -0.0210391 0 0 0 0.004 300 0 
147 1 1 -0.00706235 -0.0159289 0.0357295 0 0 0 0 0 -0.692277 0 0 -0.0210391 0 0 0 0.004 300 0 
28 1 1 0.00151143 -0.0166314 0.0353767 0 0 0 0.0877888 0.0598412 -0.560004 0.456987 0.309718 0.647938 -2.72608 4.7037 -0.319173 0.004 300 0 
129 1 1 0.0114064 -0.0191982 0.0310149 0 0 0 0 0 -0.692277 0 0 -0.0210391 0 0 0 0.004 300 0 
50 1 1 -0.0303183 -0.0126892 0.0353044 0 0 0 0 0 -0.692277 0 0 -0.0210391 0 0 0 0.004 300 0 
92 1 1 0.0372553 -0.0123787 0.0333706 0 0 0 0 0 -0.692277 0 0 -0.0210391 0 0 0 0.004 300 0 
56 1 1 0.0113863 -0.00736909 0.0346503 0 0 0 0 0 -0.692277 0 0 -0.0210391 0 0 0 0.004 300 0 
206 1 1 -0.0142955 -0.00461666 0.0349324 0 0 0 0 0 -0.692277 0 0 -0.0210391 0 0 0 0.004 300 0 
133 1 1 0.0336471 -0.00412138 0.0333328 0 0 0 0 0 -0.692277 0 0 -0.0210391 0 0 0 0.004 300 0 
114 1 1 0.0121005 -0.0359802 0.0386096 0 0 0 0 0 -0.692277 0 0 -0.0210391 0 0 0 0.004 300 0 
22 1 1 -0.0306947 -0.0253641 0.0399379 0 0 0 0 0 -0.692277 0 0 -0.0210391 0 0 0 0.004 300 0 
154 1 1 0.0260004 -0.0299667 0.0362809 0 0 0 -0.0433544 -0.0401823 -0.661583 0 0 -0.0210391 1.00287 -1.69046 -0.798409 0.004 300 0 
70 1 1 -0.0215908 -0.0209089 0.0378284 0 0 0 0 0 -0.692277 0 0 -0.0210391 0 0 0 0.004 300 0 
209 1 1 0.0185066 -0.0224939 0.0387024 0 0 0 0 0 -0.692277 0 0 -0.0210391 0 0 0 0.004 300 0 
97 1 1 0.0294205 -0.0174925 0.0373921 0 0 0 0 0 -0.692277 0 0 -0.0210391 0 0 0 0.004 300 0 
90 1 1 -0.0240898 -0.00620691 0.0392398 0 0 0 0 0 -0.692277 0 0 -0.0210391 0 0 0 0.004 300 0 
111 1 1 -0.00619357 -0.00515209 0.0366409 0 0 0 0 0 -0.692277 0 0 -0.0210391 0 0 0 0.004 300 0 
189 1 1 0.00135111 -0.00843191 0.0382156 0 0 0 0 0 -0.692277 0 0 -0.0210391 0 0 0 0.004 300 0 
44 1 1 0.0233973 -0.00830079 0.0360859 0 0 0 0 0 -0.692277 0 0 -0.0210391 0 0 0 0.004 300 0 
192 1 1 -0.0369628 -0.0040115 0.0362706 0 0 0 0 0 -0.692277 0 0 -0.0210391 0 0 0 0.004 300 0 
127 1 1 -0.00717215 -0.0386603 0.041302 0 0 0 0 0 -0.692277 0 0 -0.0210391 0 0 0 0.004 300 0 
172 1 1 0.00686293 -0.0398758 0.0434149 0 0 0 0 0 -0.692277 0 0 -0.0210391 0 0 0 0.004 300 0 
110 1 1 -0.0244034 -0.031257 0.0455179 0 0 0 0 0 -0.692277 0 0 -0.0210391 0 0 0 0.004 300 0 
38 1 1 -0.0160069 -0.0318006 0.042555 0 0 0 0 0 -0.692277 0 0 -0.0210391 0 0 0 0.004 300 0 
128 1 1 0.00290677 -0.0304538 0.0427218 0 0 0 0 0 -0.692277 0 0 -0.0210391 0 0 0 0.004 300 0 
35 1 1 0.0219648 -0.0316398 0.0457863 0 0 0 0 0 -0.692277 0 0 -0.0210391 0 0 0 0.004 300 0 
36 1 1 -0.00723454 -0.0229837 0.0422993 0 0 0 0 0 -0.692277 0 0 -0.0210391 0 0 0 0.004 300 0 
3 1 1 0.029045 -0.0226919 0.0436074 0 0 0 0 0 -0.692277 0 0 -0.0210391 0 0 0 0.004 300 0 
16 1 1 0.0148554 -0.0153529 0.0440075 0 0 0 0 0 -0.692277 0 0 -0.0210391 0 0 0 0.004 300 0 
81 1 1 -0.033408 -0.011318 0.0446265 0 0 0 0 0 -0.692277 0 0 -0.0210391 0 0 0 0.004 300 0 
14 1 1 -0.0171883 -0.0144962 0.0437556 0 0 0 0 0 -0.692277 0 0 -0.0210391 0 0 0 0.004 300 0 
68 1 1 -0.00300839 -0.0135082 0.0427793 0 0 0 0 0 -0.692277 0 0 -0.0210391 0 0 0 0.004 300 0 
205 1 1 0.026824 -0.0116688 0.0439639 0 0 0 0 0 -0.692277 0 0 -0.0210391 0 0 0 0.004 300 0 
66 1 1 -0.00998512 -0.00747318 0.0438345 0 0 0 0 0 -0.692277 0 0 -0.0210391 0 0 0 0.004 300 0 
212 1 1 0.0182997 -0.00632727 0.0428641 0 0 0 0 0 -0.692277 0 0 -0.0210391 0 0 0 0.004 300 0 
67 1 1 0.0386645 -0.00572211 0.0443174 0 0 0 0 0 -0.692277 0 0 -0.0210391 0 0 0 0.004 300 0 
181 1 1 -0.0405828 -0.00468592 0.0448238 0 0 0 0 0 -0.692277 0 0 -0.0210391 0 0 0 0.004 300 0 
123 1 1 0.0295345 -0.00457092 0.0411386 0 0 0 0 0 -0.692277 0 0 -0.0210391 0 0 0 0.004 300 0 
126 1 1 -0.0165589 -0.0350025 0.0506875 0 0 0 0 0 -0.692277 0 0 -0.0210391 0 0 0 0.004 300 0 
143 1 1 -0.00444106 -0.037913 0.0499787 0 0 0 0 0 -0.692277 0 0 -0.0210391 0 0 0 0.004 300 0 
61 1 1 0.0107614 -0.0387269 0.050692 0 0 0 0 0 -0.692277 0 0 -0.0210391 0 0 0 0.004 300 0 
216 1 1 0.00350099 -0.0319717 0.0507949 0 0 0 0 0 -0.692277 0 0 -0.0210391 0 0 0 0.004 300 0 
134 1 1 -0.0199849 -0.0256904 0.0499186 0 0 0 0 0 -0.692277 0 0 -0.0210391 0 0 0 0.004 300 0 
182 1 1 -0.00371177 -0.0293425 0.048392 0 0 0 0 0 -0.692277 0 0 -0.0210391 0 0 0 0.004 300 0 
149 1 1 0.0143022 -0.028882 0.0459478 0 0 0 0 0 -0.692277 0 0 -0.0210391 0 0 0 0.004 300 0 
122 1 1 -0.0122626 -0.0212512 0.0492789 0 0 0 0 0 -0.692277 0 0 -0.0210391 0 0 0 0.004 300 0 
25 1 1 0.00732024 -0.0218591 0.0459298 0 0 0 0 0 -0.692277 0 0 -0.0210391 0 0 0 0.004 300 0 
218 1 1 -0.036247 -0.0190156 0.0472786 0 0 0 0 0 -0.692277 0 0 -0.0210391 0 0 0 0.004 300 0 
51 1 1 -0.0279523 -0.0199018 0.0473783 0 0 0 0 0 -0.692277 0 0 -0.0210391 0 0 0 0.004 300 0 
138 1 1 -0.00420857 -0.0191922 0.0491552 0 0 0 0 0 -0.692277 0 0 -0.0210391 0 0 0 0.004 300 0 
94 1 1 0.0204456 -0.0178454 0.0504226 0 0 0 0 0 -0.692277 0 0 -0.0210391 0 0 0 0.004 300 0 
99 1 1 0.0353376 -0.0177786 0.047234 0 0 0 0 0 -0.692277 0 0 -0.0210391 0 0 0 0.004 300 0 
203 1 1 0.00403326 -0.0139766 0.0479498 0 0 0 0 0 -0.692277 0 0 -0.0210391 0 0 0 0.004 300 0 
175 1 1 -0.0233941 -0.00982385 0.0478889 0 0 0 0 0 -0.692277 0 0 -0.0210391 0 0 0 0.004 300 0 
201 1 1 -0.0157093 -0.00592272 0.049806 0 0 0 0 0 -0.692277 0 0 -0.0210391 0 0 0 0.004 300 0 
165 1 1 -0.00309869 -0.00738197 0.0489696 0 0 0 0 0 -0.692277 0 0 -0.0210391 0 0 0 0.004 300 0 
27 1 1 0.00509447 -0.00612366 0.0461214 0 0 0 0 0 -0.692277 0 0 -0.0210391 0 0 0 0.004 300 0 
141 1 1 0.013175 -0.00609677 0.0495618 0 0 0 0 0 -0.692277 0 0 -0.0210391 0 0 0 0.004 300 0 
115 1 1 0.0246668 -0.00543012 0.0485111 0 0 0 0 0 -0.692277 0 0 -0.0210391 0 0 0 0.004 300 0 
166 1 1 0.0245359 -0.0252593 0.0510954 0 0 0 0 0 -0.692277 0 0 -0.0210391 0 0 0 0.004 300 0 
73 1 1 0.0308992 -0.0109001 0.0509381 0 0 0 0 0 -0.692277 0 0 -0.0210391 0 0 0 0.004 300 0 
427 1 1 -0.0154239 -0.0375833 0.0597614 0 0 0 0 0 -0.692277 0 0 -0.0210391 0 0 0 0.004 300 0 
334 1 1 -0.00170944 -0.032788 0.0597583 0 0 0 0 0 -0.692277 0 0 -0.0210391 0 0 0 0.004 300 0 
399 1 1 0.0093429 -0.0344159 0.059444 0 0 0 0 0 -0.692277 0 0 -0.0210391 0 0 0 0.004 300 0 
381 1 1 -0.0250076 -0.0239068 0.060707 0 0 0 0 0 -0.692277 0 0 -0.0210391 0 0 0 0.004 300 0 
317 1 1 0.000562334 -0.0219228 0.0598001 0 0 0 0 0 -0.692277 0 0 -0.0210391 0 0 0 0.004 300 0 
330 1 1 0.0322365 -0.0229992 0.0604269 0 0 0 0 0 -0.692277 0 0 -0.0210391 0 0 0 0.004 300 0 
246 1 1 -0.0337032 -0.0169722 0.0594562 0 0 0 0 0 -0.692277 0 0 -0.0210391 0 0 0 0.004 300 0 
421 1 1 -0.00034683 -0.0120832 0.0592689 0 0 0 0 0 -0.692277 0 0 -0.0210391 0 0 0 0.004 300 0 
401 1 1 0.00766962 -0.0108462 0.0602427 0 0 0 0 0 -0.692277 0 0 -0.0210391 0 0 0 0.004 300 0 
374 1 1 0.0224654 -0.00976717 0.0603924 0 0 0 0 0 -0.692277 0 0 -0.0210391 0 0 0 0.004 300 0 
443 1 1 -0.00194595 -0.0403302 0.0629511 0 0 0 0 0 -0.692277 0 0 -0.0210391 0 0 0 0.004 300 0 
371 1 1 -0.009764 -0.0392806 0.0651909 0 0 0 0 0 -0.692277 0 0 -0.0210391 0 0 0 0.004 300 0 
271 1 1 0.0195015 -0.0313019 0.0627586 0 0 0 0 0 -0.692277 0 0 -0.0210391 0 0 0 0.004 300 0 
347 1 1 -0.0165634 -0.0281746 0.0615846 0 0 0 0 0 -0.692277 0 0 -0.0210391 0 0 0 0.004 300 0 
390 1 1 -0.00854704 -0.0275508 0.0620117 0 0 0 0 0 -0.692277 0 0 -0.0210391 0 0 0 0.004 300 0 
258 1 1 -0.0149935 -0.0205197 0.0651402 0 0 0 0 0 -0.692277 0 0 -0.0210391 0 0 0 0.004 300 0 
388 1 1 -0.0211833 -0.0164286 0.0614782 0 0 0 0 0 -0.692277 0 0 -0.0210391 0 0 0 0.004 300 0 
281 1 1 0.0125742 -0.0152022 0.0652153 0 0 0 0 0 -0.692277 0 0 -0.0210391 0 0 0 0.004 300 0 
396 1 1 -0.0274426 -0.0113254 0.0626964 0 0 0 0 0 -0.692277 0 0 -0.0210391 0 0 0 0.004 300 0 
304 1 1 -0.0111478 -0.0133094 0.0615987 0 0 0 0 0 -0.692277 0 0 -0.0210391 0 0 0 0.004 300 0 
309 1 1 0.0371696 -0.012632 0.062234 0 0 0 0 0 -0.692277 0 0 -0.0210391 0 0 0 0.004 300 0 
366 1 1 -0.0360741 -0.00635601 0.0626358 0 0 0 0 0 -0.692277 0 0 -0.0210391 0 0 0 0.004 300 0 