ITEM: TIMESTEP
44000
ITEM: NUMBER OF ATOMS
890
ITEM: BOX BOUNDS mm mm mm
-0.05 0.05
-0.05 0.05
0 0.15
ITEM: ATOMS id type type x y z ix iy iz vx vy vz fx fy fz omegax omegay omegaz radius f_Temp[0] f_heatFlux[0] 
59 1 1 -0.000715549 -0.0460982 0.00395597 0 0 0 -3.73527e-08 8.73995e-08 6.91135e-08 6.31076e-08 -2.32849e-09 8.26055e-09 7.19161e-06 1.17809e-08 -4.69851e-06 0.004 540.362 0.285257 
170 1 1 -0.0173498 -0.0426414 0.00397301 0 0 0 -9.03158e-08 7.72039e-09 -5.76403e-08 6.92718e-08 -8.20487e-09 -6.78425e-09 -3.26841e-06 -1.07634e-05 1.46765e-05 0.004 434.816 2.61554 
15 1 1 -0.00975016 -0.0449638 0.00393397 0 0 0 -5.64942e-08 3.7552e-08 -2.61174e-08 5.41155e-08 3.4576e-09 2.42063e-09 -7.3954e-06 -6.36827e-06 2.80361e-07 0.004 466.344 2.12603 
116 1 1 0.00648761 -0.0428197 0.00395869 0 0 0 -1.30752e-07 1.99846e-07 1.7488e-07 7.73743e-08 7.75188e-08 6.70231e-08 -1.33783e-05 -3.10024e-05 3.31425e-05 0.004 600.319 -1.06755 
158 1 1 0.0143627 -0.0437625 0.0038998 0 0 0 -1.52943e-07 2.03525e-07 2.29362e-07 2.62497e-08 5.68979e-08 4.96193e-08 -7.08247e-06 -2.53822e-05 5.40102e-06 0.004 642.147 -1.90122 
98 1 1 0.0216779 -0.0406527 0.00394261 0 0 0 -1.40584e-07 1.58131e-07 2.4498e-07 5.59652e-08 4.35491e-08 2.36102e-08 1.00484e-05 1.11653e-06 2.72822e-06 0.004 680.108 -2.46936 
169 1 1 -0.0244315 -0.0390659 0.00391427 0 0 0 -1.23888e-07 -6.46309e-08 -1.81877e-07 6.58917e-08 -4.06985e-08 -6.72662e-08 -1.41505e-05 -1.26608e-05 1.29205e-05 0.004 396.21 2.87463 
89 1 1 -0.011812 -0.0369235 0.00395462 0 0 0 -1.81568e-07 7.93232e-08 -9.21108e-08 1.4374e-07 -7.34172e-09 -3.12923e-08 -1.00899e-05 -2.79374e-06 -5.27047e-06 0.004 455.937 2.02663 
152 1 1 -0.00418342 -0.0390223 0.00390524 0 0 0 -1.64227e-07 1.76977e-07 5.04611e-08 1.91081e-07 2.22649e-08 1.07055e-08 -2.16799e-05 -3.54311e-05 4.17833e-05 0.004 510.955 0.898959 
23 1 1 0.0153483 -0.035882 0.00391129 0 0 0 -2.97936e-07 3.66838e-07 5.16275e-07 1.30738e-07 1.00871e-07 7.31335e-08 -8.11048e-06 -2.221e-05 3.42718e-06 0.004 652.493 -2.05281 
118 1 1 -0.0307533 -0.0342397 0.00392725 0 0 0 -1.21713e-07 -8.26979e-08 -1.98671e-07 7.63833e-08 -4.90431e-08 -5.14427e-08 8.06736e-06 -2.7165e-05 4.05602e-06 0.004 366.022 2.93898 
30 1 1 -0.0188787 -0.0333717 0.00395275 0 0 0 -2.82858e-07 4.32287e-08 -2.56637e-07 1.51548e-07 -1.05823e-07 -1.36368e-07 -3.00238e-05 -5.3564e-05 2.77364e-05 0.004 408.378 2.64417 
215 1 1 -0.00603631 -0.0313238 0.00390661 0 0 0 -2.05828e-07 2.00208e-07 -2.66912e-08 2.44245e-07 3.2726e-09 -4.43427e-08 -2.63542e-05 -2.34743e-05 -2.72852e-05 0.004 491.515 1.25109 
74 1 1 0.0018414 -0.0338192 0.0039068 0 0 0 -2.99632e-07 3.98402e-07 1.98691e-07 2.55294e-07 2.22302e-08 2.3541e-08 -5.85202e-05 -5.54668e-05 -7.21413e-06 0.004 556.568 -0.103238 
24 1 1 0.00917856 -0.0308342 0.00392034 0 0 0 -4.45185e-07 4.05056e-07 3.93574e-07 2.16825e-07 1.14905e-07 1.06033e-07 -6.07726e-05 -5.94991e-05 2.75436e-06 0.004 619.722 -1.41152 
198 1 1 0.0259423 -0.0339524 0.00395551 0 0 0 -3.74015e-07 2.23192e-07 4.90408e-07 1.01004e-07 8.93477e-08 8.19436e-08 2.63679e-05 -3.40764e-05 7.43067e-05 0.004 711.736 -2.72653 
161 1 1 0.0335301 -0.0316074 0.00391358 0 0 0 -2.57855e-07 3.41571e-07 4.02326e-07 2.92378e-08 1.09535e-07 4.90259e-08 -1.95723e-05 1.22006e-05 -3.35024e-05 0.004 737.122 -2.71254 
8 1 1 -0.0322699 -0.0264156 0.00398405 0 0 0 -2.14282e-07 -7.21645e-08 -2.91345e-07 1.24323e-07 -3.63003e-08 -5.77521e-08 -2.32996e-05 6.21066e-05 2.98043e-05 0.004 356.531 2.74275 
12 1 1 -0.0244143 -0.0276959 0.00386439 0 0 0 -3.595e-07 -2.44904e-08 -5.6317e-07 2.07678e-07 -7.78147e-08 -1.75604e-07 9.0668e-06 -5.34415e-05 -1.29306e-05 0.004 382.809 2.74631 
188 1 1 -0.0131742 -0.0277762 0.00396589 0 0 0 -3.65908e-07 2.20207e-07 -1.29612e-07 2.66406e-07 -1.4001e-07 -2.08733e-07 -2.97814e-05 -7.01454e-05 3.89842e-05 0.004 427.251 2.40587 
77 1 1 -0.000100239 -0.0260809 0.00389416 0 0 0 -4.36057e-07 4.78197e-07 5.21965e-08 4.09754e-07 8.82617e-08 3.5101e-08 -7.82279e-05 -0.000101609 0.000103896 0.004 543.35 0.14503 
113 1 1 0.0165643 -0.0280203 0.00388659 0 0 0 -5.07622e-07 4.04704e-07 5.37383e-07 1.95093e-07 1.03599e-07 5.46993e-08 -4.55402e-05 -6.32308e-05 3.2028e-05 0.004 669.014 -2.19411 
183 1 1 0.0384541 -0.0253742 0.00393847 0 0 0 -2.81352e-07 2.86591e-07 4.38404e-07 3.0641e-08 8.89341e-08 4.33496e-08 1.07718e-05 3.65404e-05 -1.55519e-05 0.004 756.103 -2.49404 
162 1 1 -0.0396311 -0.023418 0.00390783 0 0 0 -2.65847e-07 -5.25535e-08 -2.36379e-07 2.54712e-08 -5.90288e-08 -8.92838e-08 1.67329e-05 -5.55787e-05 -4.68214e-05 0.004 337.091 2.36788 
53 1 1 -0.027206 -0.0202486 0.00395169 0 0 0 -5.73654e-07 1.3065e-07 -5.28175e-07 2.34945e-07 -9.50659e-08 -1.59727e-07 -4.30237e-05 -0.000157691 7.29879e-05 0.004 366.273 2.69209 
148 1 1 -0.0187584 -0.0220642 0.00393817 0 0 0 -5.63936e-07 8.83476e-08 -5.94859e-07 3.23933e-07 -1.67104e-07 -2.07305e-07 -3.72254e-05 -0.000112471 4.86278e-05 0.004 405.665 2.62513 
195 1 1 -0.00727817 -0.02155 0.00394566 0 0 0 -7.64732e-07 4.89874e-07 -8.56345e-10 4.87515e-07 3.56699e-08 -1.13767e-07 -5.90877e-05 -0.000163507 -2.26047e-05 0.004 478.634 1.49277 
179 1 1 0.00736629 -0.0231031 0.00394274 0 0 0 -7.97279e-07 4.50742e-07 1.94988e-07 3.2901e-07 1.80363e-07 1.79917e-07 -3.66164e-05 -0.000186057 5.81699e-05 0.004 618.528 -1.4224 
95 1 1 0.0148506 -0.02031 0.00393211 0 0 0 -8.57935e-07 4.45697e-07 7.15121e-07 2.45454e-07 1.50529e-07 8.77366e-08 -6.38979e-05 -0.000129958 -1.19585e-05 0.004 665.455 -2.1243 
76 1 1 0.0230028 -0.0233057 0.00397473 0 0 0 -6.46674e-07 4.32217e-07 6.38419e-07 1.89209e-07 2.36528e-07 8.52449e-08 -3.88395e-05 -0.000150816 2.37262e-05 0.004 717.544 -2.70365 
100 1 1 0.0325586 -0.0200895 0.00388596 0 0 0 -7.33564e-07 6.37192e-07 1.02805e-06 1.22118e-07 2.75272e-07 1.21305e-07 -5.02136e-05 -8.02108e-05 2.68225e-05 0.004 747.484 -2.55248 
65 1 1 -0.0430742 -0.0162802 0.00393146 0 0 0 -2.21573e-07 4.42005e-08 -2.88646e-07 2.121e-08 -5.34695e-08 -7.79792e-08 -7.15498e-06 1.1386e-05 2.89806e-05 0.004 327.88 2.08071 
102 1 1 -0.0351583 -0.0155178 0.0039445 0 0 0 -5.7143e-07 2.14943e-07 -6.36286e-07 1.48302e-07 -1.47598e-07 -2.15589e-07 -4.4615e-05 -5.17809e-05 1.03809e-05 0.004 339.871 2.29868 
213 1 1 -0.0132588 -0.0162738 0.00397365 0 0 0 -7.38371e-07 3.66191e-07 -2.45032e-07 2.94595e-07 -5.07075e-08 -1.33627e-07 2.21221e-05 -9.14379e-05 2.80087e-05 0.004 430.501 2.31015 
10 1 1 0.00114846 -0.0182524 0.00475003 0 0 0 -8.47379e-07 6.55584e-07 2.41548e-07 5.19834e-07 1.9891e-07 -1.65362e-09 7.73291e-05 0.000101019 -6.37192e-05 0.004 562.961 -0.336704 
5 1 1 0.00879791 -0.0152553 0.00390316 0 0 0 -7.94767e-07 5.59323e-07 5.06948e-07 3.26769e-07 2.0477e-07 6.55446e-08 -4.37623e-05 -7.18173e-05 -5.15982e-05 0.004 627.304 -1.54588 
96 1 1 0.0211693 -0.0155242 0.00395652 0 0 0 -9.22869e-07 4.56661e-07 8.01639e-07 8.60625e-08 2.56133e-07 1.66888e-07 -4.33198e-05 -0.000145322 5.57112e-05 0.004 712.421 -2.54712 
167 1 1 0.0421923 -0.0183683 0.00392112 0 0 0 -3.58998e-07 2.37251e-07 2.6797e-07 2.91052e-09 6.33127e-08 2.51715e-08 -6.62604e-05 -8.14311e-05 -1.42761e-05 0.004 771.592 -2.15411 
124 1 1 -0.029011 -0.0104716 0.00394792 0 0 0 -1.03237e-06 4.33221e-07 -4.20162e-07 1.62498e-07 -1.0492e-07 -1.89797e-07 -3.95221e-05 -0.000215453 3.28051e-05 0.004 359.247 2.45691 
220 1 1 -0.0217759 -0.0144543 0.00398045 0 0 0 -8.61729e-07 5.56849e-07 -2.49408e-07 2.70238e-07 -6.61649e-08 -1.31825e-07 -0.000175526 -0.000162555 5.58682e-05 0.004 386.293 2.55441 
144 1 1 -0.00535517 -0.0138038 0.00388181 0 0 0 -7.5202e-07 6.35421e-07 7.29778e-08 5.07068e-07 1.07501e-07 -1.51222e-07 -9.45002e-05 -0.000170051 4.36229e-05 0.004 510.033 0.684194 
26 1 1 0.00255573 -0.0104629 0.0039057 0 0 0 -8.08745e-07 6.91728e-07 4.43965e-07 4.03651e-07 2.62157e-07 -7.09738e-08 -5.18784e-05 -5.7967e-05 4.3919e-05 0.004 566.879 -0.433592 
194 1 1 0.0287352 -0.013103 0.00393081 0 0 0 -9.33982e-07 6.12778e-07 1.08438e-06 1.36863e-07 3.21585e-07 1.33553e-07 -5.59626e-05 -0.00013908 1.70789e-05 0.004 741.277 -2.55166 
37 1 1 0.0366701 -0.0122308 0.00393305 0 0 0 -8.21052e-07 5.12312e-07 1.18795e-06 9.62683e-08 2.90452e-07 6.65255e-08 -0.000177506 -0.00014952 -0.000137189 0.004 765.409 -2.25629 
219 1 1 0.0447285 -0.0108715 0.00390888 0 0 0 -2.39756e-07 1.44925e-07 1.47142e-07 -1.16948e-08 6.47241e-08 8.79409e-09 -7.09598e-05 -5.3301e-05 -3.99996e-05 0.004 778.771 -1.92029 
636 1 1 -0.0451997 -0.00864275 0.00391771 0 0 0 -3.01569e-07 3.85199e-08 -2.57437e-07 -5.59304e-08 -5.06959e-08 -1.18124e-07 -7.50849e-06 -5.43632e-05 1.50174e-05 0.004 320.4 1.81621 
39 1 1 -0.0161466 -0.00885108 0.00388992 0 0 0 -8.56328e-07 6.02485e-07 -4.6241e-07 3.45385e-07 4.80116e-09 -2.80181e-07 -6.15664e-05 -0.000120498 -2.94246e-05 0.004 422.32 2.06579 
171 1 1 -0.00395984 -0.00597828 0.00392048 0 0 0 -8.70081e-07 6.23736e-07 5.1278e-08 3.98277e-07 1.48762e-07 -1.84748e-07 -5.54469e-05 -0.000122731 -2.22235e-05 0.004 514.141 0.568284 
200 1 1 0.0146298 -0.0098652 0.00396379 0 0 0 -1.03889e-06 5.69345e-07 7.25472e-07 1.80231e-07 2.79333e-07 7.16976e-08 -7.56223e-05 -0.00014101 5.22799e-05 0.004 671.009 -2.19792 
21 1 1 0.022252 -0.00762162 0.00394337 0 0 0 -1.06996e-06 5.12709e-07 9.15182e-07 5.02122e-08 3.17976e-07 9.64626e-08 -0.000100596 -0.000188444 -2.99443e-05 0.004 715.074 -2.54937 
17 1 1 0.0298456 -0.00520717 0.00394876 0 0 0 -1.01951e-06 4.71653e-07 1.28937e-06 5.57299e-08 3.31724e-07 6.31634e-08 -5.96673e-05 -0.000217233 1.52548e-05 0.004 740.959 -2.55405 
477 1 1 -0.0445832 -0.000710814 0.00396286 0 0 0 -4.41444e-07 9.87446e-08 -3.09874e-07 -1.18005e-07 -6.20468e-08 -1.74305e-07 -8.90628e-06 -8.97809e-05 4.79896e-06 0.004 319.372 1.74403 
140 1 1 -0.0352672 -0.00371827 0.0038725 0 0 0 -6.38641e-07 4.86205e-07 -5.90471e-07 6.1994e-08 -8.3066e-08 -2.65586e-07 -0.000122442 -0.000106284 9.21032e-05 0.004 340.127 2.13343 
119 1 1 -0.0273891 -0.00269834 0.00396393 0 0 0 -7.67128e-07 5.92587e-07 -5.27992e-07 1.69491e-07 -3.82309e-08 -2.5258e-07 -9.23814e-05 -6.54549e-05 -8.79676e-05 0.004 365.825 2.32059 
207 1 1 -0.0194911 -0.00168728 0.00389515 0 0 0 -7.65668e-07 6.5024e-07 -6.06216e-07 2.86373e-07 3.42364e-09 -4.14935e-07 -7.90345e-05 -0.000110177 4.25261e-05 0.004 402.579 2.1644 
69 1 1 -0.0111573 -0.00264551 0.0039301 0 0 0 -7.84389e-07 6.16114e-07 -2.48957e-07 3.34005e-07 8.77074e-08 -2.78717e-07 -6.42284e-05 -0.000128227 -1.91239e-06 0.004 456.815 1.54125 
221 1 1 0.00874804 -0.00448988 0.00393203 0 0 0 -1.08182e-06 7.13955e-07 4.27323e-07 2.20458e-07 3.21166e-07 5.5722e-09 -0.000113181 -0.0001004 -2.5913e-05 0.004 635.899 -1.69029 
457 1 1 0.0163505 -0.0020806 0.0039593 0 0 0 -1.14292e-06 5.68436e-07 5.73585e-07 4.61246e-08 2.84202e-07 2.69864e-08 -0.000161881 -0.00022926 -4.55792e-05 0.004 682.015 -2.31389 
155 1 1 0.0378912 -0.00224685 0.00393693 0 0 0 -1.04777e-06 3.60731e-07 1.19368e-06 -2.00869e-08 2.77787e-07 1.21636e-07 -7.12717e-05 -0.000261052 3.51978e-05 0.004 768.331 -2.09114 
665 1 1 0.0459183 -0.00307627 0.00394261 0 0 0 -5.1482e-07 -2.85773e-08 2.61077e-07 -6.3591e-08 6.74049e-08 3.12822e-08 7.98659e-05 -0.000120735 9.43021e-05 0.004 779.03 -1.87404 
120 1 1 0.00918486 -0.0371091 0.00876936 0 0 0 -6.24648e-07 5.84727e-07 5.79495e-07 2.99503e-07 1.5244e-07 1.76835e-07 -2.42796e-05 -6.28259e-05 3.48221e-05 0.004 620.976 -1.48062 
9 1 1 -0.0247147 -0.033359 0.00937625 0 0 0 -6.01732e-07 -6.27548e-08 -5.89275e-07 2.2266e-07 -1.07028e-07 -1.54579e-07 -2.79856e-05 -5.11101e-05 5.41176e-05 0.004 386.249 2.83069 
101 1 1 -0.0188615 -0.0277191 0.0095515 0 0 0 -8.71963e-07 2.58208e-07 -7.05557e-07 4.45672e-07 -1.53194e-07 -3.42479e-07 -6.76443e-05 -8.15548e-05 5.71299e-05 0.004 403.534 2.62012 
48 1 1 0.0221998 -0.0293138 0.00920033 0 0 0 -8.44244e-07 6.18705e-07 9.55697e-07 1.93803e-07 2.64816e-07 1.14852e-07 -0.000117255 -3.78979e-05 -9.97695e-05 0.004 702.152 -2.5339 
75 1 1 0.02936 -0.0261745 0.00787423 0 0 0 -7.32714e-07 5.51201e-07 1.03225e-06 1.60775e-07 3.22411e-07 1.66385e-07 8.16085e-05 -3.57521e-05 8.78774e-05 0.004 734.126 -2.65099 
46 1 1 -0.0327912 -0.0205809 0.00958352 0 0 0 -1.04466e-06 -8.66978e-08 -1.27236e-06 2.4542e-07 -2.41013e-07 -4.71862e-07 3.24223e-05 -2.62748e-05 2.33669e-05 0.004 352.382 2.49832 
33 1 1 -0.013034 -0.0220249 0.00949571 0 0 0 -1.26541e-06 5.61325e-07 -3.34109e-07 6.22668e-07 -1.37362e-07 -3.4375e-07 -5.5042e-05 -0.000103405 2.76518e-05 0.004 431.701 2.25023 
11 1 1 0.02689 -0.0187448 0.00924464 0 0 0 -1.5791e-06 6.83874e-07 1.64224e-06 2.22408e-07 4.59536e-07 2.24653e-07 7.53012e-05 -3.77344e-05 7.05419e-05 0.004 729.902 -2.58806 
71 1 1 -0.0372751 -0.00954696 0.00876625 0 0 0 -7.81092e-07 3.32814e-07 -8.82923e-07 1.28822e-07 -1.6701e-07 -3.34358e-07 0.000138899 -1.20902e-06 -3.76421e-05 0.004 332.723 2.09161 
62 1 1 -0.0228082 -0.00771372 0.00814041 0 0 0 -1.2901e-06 8.73949e-07 -7.69027e-07 4.04603e-07 -3.4992e-08 -3.68171e-07 -4.32943e-05 0.00013318 5.89472e-06 0.004 385.211 2.39036 
19 1 1 -0.00970673 -0.00905634 0.00849074 0 0 0 -1.63933e-06 9.75861e-07 -4.82768e-07 6.73483e-07 1.05733e-07 -3.78331e-07 -2.71402e-05 -6.4222e-05 2.60667e-05 0.004 479.645 1.14727 
187 1 1 0.00796708 -0.00988206 0.00975754 0 0 0 -1.92473e-06 1.17088e-06 7.31979e-07 4.42627e-07 4.59563e-07 4.92037e-08 -3.87386e-05 -0.000245055 9.86821e-05 0.004 621.616 -1.61437 
157 1 1 0.0395817 -0.00751949 0.00963113 0 0 0 -1.64361e-06 4.48556e-07 2.03456e-06 -2.71433e-08 3.80071e-07 1.49149e-07 0.000138794 -0.00010111 0.000163798 0.004 773.528 -2.02308 
18 1 1 0.00229111 -0.00404903 0.00852647 0 0 0 -1.78396e-06 1.2633e-06 6.69687e-07 4.85724e-07 4.87583e-07 -1.21784e-07 -2.33637e-05 -0.0001191 3.02303e-05 0.004 565.533 -0.371917 
185 1 1 -0.00531148 -0.045735 0.0104438 0 0 0 -2.04389e-07 1.13849e-07 1.9754e-08 1.66721e-07 1.73174e-08 -2.86596e-08 -2.11524e-06 -3.79505e-05 2.39897e-05 0.004 505.837 1.11341 
83 1 1 0.00256736 -0.0459473 0.0112661 0 0 0 -2.8934e-07 2.72225e-07 2.38273e-07 1.68703e-07 5.51787e-08 1.51013e-07 5.31831e-05 -1.98319e-05 3.98834e-05 0.004 562.648 -0.204152 
58 1 1 -0.0218568 -0.0405821 0.0112769 0 0 0 -3.59379e-07 1.41968e-07 -2.47037e-07 2.04175e-07 -9.77664e-08 -1.21466e-07 -5.81605e-05 -3.64757e-05 8.75389e-05 0.004 400.794 2.80782 
105 1 1 -0.013586 -0.043966 0.0108788 0 0 0 -1.80222e-07 9.84717e-08 -8.53335e-08 1.72515e-07 1.73636e-08 8.69952e-09 -2.04665e-05 -6.73771e-07 4.92502e-05 0.004 448.526 2.63107 
223 1 1 0.0103957 -0.0448674 0.0106706 0 0 0 -3.29845e-07 3.16843e-07 3.39385e-07 1.49856e-07 7.2399e-08 2.05242e-07 2.31542e-05 -1.56555e-06 -2.53903e-07 0.004 614.792 -1.36052 
217 1 1 0.0179432 -0.0424253 0.0108281 0 0 0 -4.44054e-07 3.78168e-07 4.97123e-07 1.07212e-07 9.26124e-08 1.02163e-08 3.43735e-05 -8.7799e-06 3.1861e-05 0.004 658.015 -2.17292 
6 1 1 -0.0162615 -0.0350311 0.0113114 0 0 0 -6.70233e-07 3.4314e-07 -5.38512e-07 4.01528e-07 -8.62586e-08 -1.48716e-07 -5.43307e-06 5.74022e-05 -7.34118e-06 0.004 425.026 2.44688 
151 1 1 -0.00801308 -0.0382603 0.0108115 0 0 0 -4.76425e-07 2.88737e-07 -1.57869e-07 3.55778e-07 3.86149e-08 -5.76626e-08 -2.8761e-05 -6.25544e-05 2.12165e-05 0.004 479.302 1.61779 
2 1 1 0.000443921 -0.038308 0.010271 0 0 0 -6.38002e-07 6.28427e-07 2.77469e-07 3.8746e-07 8.77854e-08 9.84064e-08 -3.31204e-05 -7.45387e-05 1.75876e-05 0.004 549.509 0.0504625 
117 1 1 0.0249196 -0.0387267 0.0109176 0 0 0 -4.908e-07 4.62214e-07 5.21778e-07 2.32742e-08 1.35358e-07 2.57891e-08 1.55183e-05 -2.97832e-05 4.38787e-05 0.004 698.816 -2.64367 
13 1 1 -0.0323455 -0.0327547 0.011537 0 0 0 -4.78534e-07 -1.68931e-07 -5.8138e-07 1.09642e-07 -1.33168e-07 -1.5484e-07 -2.46134e-05 -3.042e-05 3.22309e-06 0.004 363.564 2.80657 
193 1 1 -0.00982579 -0.0305006 0.0107685 0 0 0 -8.7887e-07 5.29077e-07 -4.73224e-07 5.57065e-07 3.58179e-09 -1.34524e-07 -8.41664e-05 -0.000158029 9.28476e-05 0.004 469.638 1.65239 
47 1 1 -0.00133758 -0.0305434 0.0103848 0 0 0 -9.81451e-07 8.01994e-07 2.05061e-09 6.48135e-07 1.12899e-07 6.89345e-08 -1.57248e-05 -0.000116166 4.39106e-05 0.004 539.205 0.235659 
153 1 1 0.00656463 -0.0300231 0.0113662 0 0 0 -1.30595e-06 9.44919e-07 7.90395e-07 5.97322e-07 2.83566e-07 2.40768e-07 -5.75667e-06 -7.49841e-05 -7.04322e-07 0.004 599.956 -1.04712 
41 1 1 0.0148076 -0.0317915 0.010654 0 0 0 -1.04747e-06 9.4821e-07 1.03916e-06 3.80515e-07 2.79752e-07 2.09614e-07 -3.70331e-05 -0.000100887 5.05433e-05 0.004 657.813 -2.09397 
163 1 1 0.0311565 -0.0339183 0.0111114 0 0 0 -5.419e-07 5.8678e-07 7.3467e-07 -4.74062e-09 2.04639e-07 1.27014e-07 1.89601e-05 1.11366e-05 -4.06734e-05 0.004 732.271 -2.70635 
214 1 1 -0.0375015 -0.0268265 0.010714 0 0 0 -5.30265e-07 -1.65997e-07 -7.30105e-07 1.25982e-07 -1.36868e-07 -2.51065e-07 -3.6225e-05 0.000136 9.71951e-06 0.004 346.37 2.50666 
210 1 1 0.0364694 -0.0280971 0.0111135 0 0 0 -5.55061e-07 4.49873e-07 8.21645e-07 1.39291e-08 1.78595e-07 1.13194e-07 4.72208e-05 3.14148e-05 1.25473e-05 0.004 754.979 -2.48666 
108 1 1 -0.0260915 -0.0246404 0.0109305 0 0 0 -1.05309e-06 -3.88946e-08 -1.37833e-06 4.51914e-07 -1.77822e-07 -4.54519e-07 -2.25964e-05 -6.72766e-05 8.26167e-05 0.004 374.268 2.61337 
40 1 1 -0.00551112 -0.0238697 0.0113285 0 0 0 -1.51766e-06 9.06242e-07 -2.00206e-07 8.23061e-07 9.98462e-08 -2.24951e-07 1.0488e-05 6.30441e-06 3.45869e-05 0.004 500.288 0.973811 
55 1 1 0.00236209 -0.0232851 0.0108249 0 0 0 -1.8105e-06 1.20668e-06 5.51373e-07 7.49425e-07 3.1815e-07 1.0784e-07 -3.1864e-05 -0.000271606 6.74086e-05 0.004 572.086 -0.467307 
91 1 1 0.0120918 -0.0243837 0.0101856 0 0 0 -1.60218e-06 1.0392e-06 1.17248e-06 5.83442e-07 3.68165e-07 2.13224e-07 4.07032e-05 -6.55037e-05 9.11189e-05 0.004 643.034 -1.83932 
112 1 1 0.0192794 -0.0205361 0.0105073 0 0 0 -1.86846e-06 1.02855e-06 2.01956e-06 4.61772e-07 4.84003e-07 2.33441e-07 -0.000159075 -1.00781e-05 -9.15931e-05 0.004 687.197 -2.41122 
178 1 1 0.0318658 -0.0225254 0.0144788 0 0 0 -1.87142e-06 7.80117e-07 1.87503e-06 3.89637e-08 4.48446e-07 2.03191e-07 -4.82124e-05 -0.000151389 3.4269e-05 0.004 749.173 -2.5347 
131 1 1 0.0407765 -0.0214683 0.0110513 0 0 0 -7.12149e-07 4.92525e-07 7.62392e-07 3.24634e-09 1.62861e-07 8.80081e-08 4.99982e-05 9.9527e-05 -3.36018e-06 0.004 767.155 -2.23925 
160 1 1 -0.0414721 -0.0199398 0.0108131 0 0 0 -5.16788e-07 -1.70011e-08 -5.25777e-07 4.15535e-08 -9.09013e-08 -1.86138e-07 2.21599e-06 -6.57135e-05 -1.56813e-05 0.004 330.921 2.16875 
43 1 1 -0.0361086 -0.0151005 0.0142598 0 0 0 -1.29105e-06 -5.92557e-08 -1.87982e-06 1.59115e-07 -3.58401e-07 -6.91775e-07 1.59033e-05 1.80751e-05 -3.4492e-05 0.004 339.125 2.20126 
4 1 1 -0.0270342 -0.0151184 0.010074 0 0 0 -1.65568e-06 2.00417e-07 -1.19535e-06 4.47304e-07 -2.24225e-07 -5.10156e-07 0.000109398 7.37826e-05 9.79574e-05 0.004 368.382 2.54269 
104 1 1 -0.020301 -0.0192302 0.0111977 0 0 0 -1.53125e-06 5.22619e-07 -1.42241e-06 6.05799e-07 -2.23012e-07 -5.62618e-07 -9.15058e-05 -9.0519e-05 3.72353e-05 0.004 397.437 2.47424 
20 1 1 -0.0074548 -0.0162218 0.0110955 0 0 0 -1.86286e-06 1.08015e-06 -3.13365e-07 9.09408e-07 1.46288e-07 -2.87375e-07 -2.09093e-05 -0.000205974 5.51317e-05 0.004 493.21 0.986897 
45 1 1 0.000825065 -0.0164513 0.0146047 0 0 0 -2.78789e-06 1.78131e-06 7.14329e-07 8.7435e-07 5.09418e-07 -3.583e-08 6.11837e-05 -0.000110364 8.60805e-06 0.004 556.313 -0.193289 
159 1 1 0.0079516 -0.0177076 0.011347 0 0 0 -2.09312e-06 1.40239e-06 1.31983e-06 7.03101e-07 4.83203e-07 2.24693e-07 -9.69092e-05 -0.000119309 -7.80268e-05 0.004 621.576 -1.42817 
136 1 1 0.0347931 -0.0163371 0.0104655 0 0 0 -1.70278e-06 8.28734e-07 2.10174e-06 8.23077e-08 4.59097e-07 1.83654e-07 0.000150375 -3.28886e-05 8.70008e-05 0.004 757.646 -2.37378 
177 1 1 -0.0443274 -0.0125289 0.0108104 0 0 0 -4.54106e-07 1.00027e-07 -5.30588e-07 3.50736e-08 -7.66151e-08 -1.9624e-07 -1.17702e-05 3.38172e-05 2.24099e-05 0.004 324.682 1.93866 
139 1 1 -0.0168209 -0.0121092 0.0110439 0 0 0 -1.8699e-06 9.26413e-07 -1.19259e-06 6.68408e-07 -1.15296e-07 -6.80684e-07 4.17085e-05 -0.000176168 4.94741e-05 0.004 415.218 2.15192 
211 1 1 -0.00209539 -0.0104148 0.0103075 0 0 0 -2.00522e-06 1.36594e-06 3.65785e-07 7.57029e-07 3.72729e-07 -1.79868e-07 -0.000115924 -0.000212704 2.37822e-05 0.004 531.48 0.255586 
54 1 1 0.0149155 -0.0138957 0.0108309 0 0 0 -2.12721e-06 1.1681e-06 1.5255e-06 4.69062e-07 5.5332e-07 2.3992e-07 -8.38571e-05 -0.000116893 8.0344e-05 0.004 670.063 -2.2261 
84 1 1 0.023272 -0.0118009 0.0106602 0 0 0 -2.55618e-06 9.31368e-07 2.08915e-06 1.40528e-07 6.1548e-07 2.84816e-07 -3.44279e-05 -0.000158295 3.94527e-06 0.004 719.233 -2.5444 
180 1 1 0.0438204 -0.0140997 0.0110465 0 0 0 -7.12844e-07 4.40569e-07 7.76872e-07 -1.54594e-08 1.67503e-07 5.90042e-08 4.13752e-05 2.35891e-05 -1.84892e-06 0.004 776.698 -1.96979 
103 1 1 0.0174441 -0.0063656 0.0105707 0 0 0 -2.73277e-06 1.16945e-06 1.73338e-06 1.68724e-07 6.56332e-07 2.17009e-07 1.88974e-05 -9.64009e-05 -6.96269e-06 0.004 687.826 -2.32896 
156 1 1 0.0308891 -0.00946111 0.0106299 0 0 0 -2.30398e-06 8.74098e-07 2.56748e-06 3.61875e-08 6.21391e-07 2.17945e-07 3.98641e-05 -0.000138804 2.66978e-05 0.004 744.871 -2.46256 
197 1 1 -0.045783 -0.0047112 0.0107571 0 0 0 -6.25693e-07 1.12878e-07 -5.99917e-07 -1.21867e-07 -6.99306e-08 -2.90132e-07 -2.07696e-05 3.73515e-05 4.58473e-05 0.004 320.142 1.76966 
87 1 1 -0.0386059 -0.00381153 0.0141381 0 0 0 -1.21182e-06 5.25847e-07 -1.24908e-06 -9.75197e-08 -1.70158e-07 -6.78095e-07 -0.000186563 -0.000188454 -3.79075e-06 0.004 327.268 1.92071 
130 1 1 -0.0313597 -0.00387382 0.0107775 0 0 0 -1.06463e-06 6.93156e-07 -1.16585e-06 2.96225e-07 -2.93822e-07 -6.98603e-07 0.000203174 5.4056e-05 4.65007e-05 0.004 345.85 2.19779 
604 1 1 -0.0224595 -0.000300849 0.0110796 0 0 0 -1.77e-06 1.26159e-06 -1.53187e-06 4.02321e-07 -5.57673e-08 -8.78427e-07 -4.1445e-05 -0.000102352 2.78598e-05 0.004 390.164 2.187 
146 1 1 -0.0155078 -0.00400725 0.0103913 0 0 0 -1.78117e-06 1.188e-06 -8.9642e-07 4.9861e-07 1.45822e-08 -7.10285e-07 1.90624e-05 -0.000118592 -4.52734e-05 0.004 432.091 1.80083 
57 1 1 -0.00517522 -0.00310605 0.0111955 0 0 0 -2.38005e-06 1.39677e-06 -1.9735e-07 5.32953e-07 3.31317e-07 -4.25325e-07 -5.90616e-05 -0.000217769 1.19029e-05 0.004 513.782 0.584904 
493 1 1 0.0116957 -0.000875027 0.0103666 0 0 0 -2.72798e-06 1.31611e-06 1.41825e-06 2.17829e-07 6.61049e-07 1.16155e-07 -7.40823e-05 -0.000300439 -4.61761e-05 0.004 652.998 -1.86377 
31 1 1 0.0250484 -0.00405415 0.0104601 0 0 0 -2.56588e-06 1.01805e-06 2.13844e-06 2.46487e-08 6.70326e-07 1.77613e-07 -9.34908e-05 -0.000164622 -2.75656e-05 0.004 722.446 -2.45842 
588 1 1 0.0325999 -0.00174523 0.0105431 0 0 0 -2.14058e-06 8.64718e-07 2.36546e-06 -9.75139e-08 6.68343e-07 1.76097e-07 -7.62305e-05 -8.54059e-05 -2.73518e-05 0.004 746.995 -2.35424 
63 1 1 0.045924 -0.00327879 0.0119253 0 0 0 -1.00231e-06 3.40242e-07 1.11671e-06 -5.00133e-08 2.14615e-07 1.45161e-07 -0.000206842 0.00023368 -0.000133024 0.004 777.681 -1.88333 
107 1 1 -0.00850634 -0.045273 0.017677 0 0 0 -6.83491e-07 2.01528e-07 -2.56323e-07 3.40027e-07 -1.92132e-08 2.1554e-08 -9.46897e-05 -8.43432e-05 0.000155016 0.004 491.278 1.31913 
222 1 1 -0.0014196 -0.0418101 0.0171129 0 0 0 -1.0939e-06 7.16066e-07 1.23467e-07 4.89195e-07 9.51706e-08 1.45123e-07 5.84589e-05 -4.11187e-05 -1.46228e-05 0.004 542.726 0.206345 
142 1 1 0.00615863 -0.0401388 0.0154212 0 0 0 -9.33126e-07 6.36506e-07 5.92008e-07 4.09877e-07 2.87706e-07 2.81126e-07 2.36189e-05 -6.65714e-05 3.10448e-05 0.004 591.391 -0.866802 
172 1 1 0.0116013 -0.0446446 0.0189547 0 0 0 -6.52722e-07 5.80647e-07 5.9908e-07 2.95399e-07 2.32336e-07 2.38755e-07 0.000109927 -5.8037e-05 0.000105244 0.004 623.158 -1.55877 
109 1 1 0.0204197 -0.0412797 0.0183142 0 0 0 -4.37883e-07 2.68858e-07 5.6129e-07 8.85056e-08 8.92228e-08 8.67305e-08 8.59081e-05 0.000101496 1.87889e-05 0.004 680.524 -2.65178 
150 1 1 -0.0273271 -0.0370832 0.0158763 0 0 0 -5.66189e-07 -1.08734e-08 -5.07621e-07 1.90218e-07 -9.69924e-08 -1.51148e-07 -3.01045e-05 7.23141e-06 5.441e-05 0.004 381.2 2.82904 
38 1 1 -0.0197788 -0.0373719 0.0182824 0 0 0 -8.54765e-07 3.06693e-07 -7.8305e-07 4.11928e-07 -8.67342e-08 -1.8648e-07 -2.85502e-05 4.76877e-05 2.25088e-05 0.004 412.042 2.58518 
199 1 1 -0.0118545 -0.0370266 0.01765 0 0 0 -1.09486e-06 4.90168e-07 -7.25609e-07 5.28343e-07 -8.49479e-08 -1.97866e-07 -2.51778e-05 -0.000105589 2.74991e-06 0.004 446.266 2.13372 
93 1 1 0.0137643 -0.0377759 0.0156807 0 0 0 -1.0438e-06 8.65107e-07 1.12061e-06 4.14975e-07 2.88734e-07 2.28533e-07 -9.06489e-06 -1.56751e-05 2.90131e-05 0.004 642.831 -1.9077 
64 1 1 0.0280177 -0.0365092 0.0179286 0 0 0 -8.86631e-07 3.16643e-07 9.51927e-07 -9.49768e-08 1.31149e-07 1.2706e-07 0.000110723 -1.07412e-05 0.000139855 0.004 722.803 -2.92058 
22 1 1 -0.0327402 -0.032422 0.0194567 0 0 0 -7.46265e-07 -4.52061e-08 -8.67559e-07 2.08713e-07 -1.20108e-07 -2.69028e-07 -0.000127119 4.1703e-05 9.28811e-05 0.004 359.091 2.6888 
174 1 1 -0.0224319 -0.0302105 0.0162617 0 0 0 -1.23117e-06 2.64972e-07 -1.15734e-06 6.13117e-07 -1.53512e-07 -4.26506e-07 -9.37202e-05 -5.23905e-06 6.364e-05 0.004 397.252 2.62574 
32 1 1 -0.0042831 -0.0343967 0.0166775 0 0 0 -1.52914e-06 9.41285e-07 -2.37039e-07 6.912e-07 1.56897e-07 -4.37279e-09 -0.000135984 -0.00016404 7.11813e-05 0.004 517.478 0.723688 
128 1 1 0.0034746 -0.033132 0.0179959 0 0 0 -1.99126e-06 1.05067e-06 8.41215e-07 7.14153e-07 3.84046e-07 2.71722e-07 3.05716e-05 -0.00016607 1.70838e-05 0.004 569.676 -0.43321 
88 1 1 0.0113687 -0.0304834 0.0177099 0 0 0 -2.37946e-06 1.0167e-06 1.4744e-06 6.16158e-07 5.12055e-07 3.71788e-07 6.68676e-05 -0.000115878 0.000127403 0.004 640.33 -1.80386 
137 1 1 0.0208046 -0.0338186 0.0156334 0 0 0 -1.02591e-06 7.55513e-07 1.26632e-06 3.04286e-07 3.02863e-07 2.78557e-07 0.000126089 0.000108653 4.78362e-05 0.004 695.148 -2.70794 
154 1 1 0.0339821 -0.0311387 0.0180551 0 0 0 -7.91152e-07 5.35362e-07 9.38126e-07 2.51601e-08 2.00796e-07 1.45965e-07 7.00606e-05 5.76124e-05 -2.26367e-05 0.004 750.805 -2.53366 
52 1 1 -0.031991 -0.0252343 0.0161626 0 0 0 -1.11321e-06 -3.42213e-07 -1.74108e-06 4.04456e-07 -3.42277e-07 -6.40111e-07 -2.28166e-05 -3.00736e-05 3.37392e-05 0.004 354.988 2.51089 
80 1 1 -0.00960098 -0.0265066 0.0175805 0 0 0 -2.28885e-06 1.18414e-06 -7.97959e-07 9.99339e-07 1.13597e-07 -4.29119e-07 -5.76434e-05 -0.000220393 5.41074e-06 0.004 469.295 1.51547 
125 1 1 -0.00117362 -0.0267001 0.0173742 0 0 0 -2.30457e-06 1.29729e-06 3.19373e-07 9.63518e-07 4.66016e-07 2.83819e-08 -2.56031e-06 -0.000252062 5.77071e-05 0.004 538.963 0.198321 
72 1 1 0.0179273 -0.0264316 0.015637 0 0 0 -2.24164e-06 1.33161e-06 2.35724e-06 5.97542e-07 5.27183e-07 4.51729e-07 7.7424e-05 -0.000191792 0.00012093 0.004 679.104 -2.41078 
34 1 1 0.0269647 -0.0287251 0.0154182 0 0 0 -1.45233e-06 8.18886e-07 1.53765e-06 4.83792e-08 4.50893e-07 2.71719e-07 0.000109736 -8.97556e-05 0.000144169 0.004 731.202 -2.62491 
218 1 1 -0.0395968 -0.0234663 0.0176916 0 0 0 -7.10982e-07 -2.14979e-07 -9.78024e-07 1.82106e-07 -2.0146e-07 -3.53539e-07 6.6662e-06 0.000122361 -7.17603e-05 0.004 334.567 2.22461 
70 1 1 -0.0247175 -0.0230258 0.0185786 0 0 0 -1.8819e-06 2.74016e-07 -2.19776e-06 6.52037e-07 -2.63245e-07 -8.80599e-07 -0.000125861 -5.29576e-05 0.000115369 0.004 378.53 2.46775 
132 1 1 -0.0171323 -0.0242634 0.0164744 0 0 0 -1.85477e-06 8.09472e-07 -1.47097e-06 8.25513e-07 -1.39751e-07 -6.84281e-07 -5.08067e-05 -4.70414e-05 8.84517e-05 0.004 415.151 2.29455 
196 1 1 0.00716652 -0.023789 0.0170602 0 0 0 -3.22981e-06 1.53579e-06 1.58056e-06 8.13707e-07 6.81314e-07 2.74949e-07 -0.000133609 -6.19446e-05 -0.000117382 0.004 618.175 -1.34772 
362 1 1 0.0243874 -0.0214292 0.0170617 0 0 0 -3.17189e-06 1.16436e-06 2.76109e-06 2.38781e-07 8.03842e-07 5.81212e-07 0.000135572 1.5918e-05 0.000106987 0.004 730.381 -2.57301 
49 1 1 0.0387627 -0.0248027 0.0179815 0 0 0 -8.50302e-07 5.06184e-07 9.54893e-07 3.46265e-08 1.63854e-07 1.08194e-07 -2.58347e-05 -2.61787e-05 3.97553e-05 0.004 763.755 -2.32597 
173 1 1 -0.0431191 -0.0163148 0.0177078 0 0 0 -6.37592e-07 5.37484e-08 -1.02499e-06 1.68833e-07 -1.55593e-07 -3.1357e-07 -1.17899e-05 0.000179875 -7.58774e-06 0.004 328.628 1.99723 
50 1 1 -0.0295064 -0.0167659 0.0182812 0 0 0 -1.9066e-06 -6.58165e-08 -2.61758e-06 4.55408e-07 -5.1579e-07 -1.18922e-06 6.79131e-05 -5.74462e-05 8.37647e-06 0.004 355.629 2.29567 
202 1 1 -0.0134618 -0.0172167 0.0161107 0 0 0 -2.45622e-06 1.00262e-06 -1.40592e-06 8.62588e-07 -1.50777e-08 -7.42215e-07 4.48502e-06 -9.93117e-05 2.79922e-05 0.004 441.96 1.79727 
86 1 1 -0.00524865 -0.0199157 0.0183758 0 0 0 -3.06621e-06 1.61568e-06 -6.14328e-08 9.64593e-07 3.54382e-07 -3.92421e-07 4.67227e-05 -9.15023e-05 6.6431e-05 0.004 511.247 0.697559 
129 1 1 0.0138597 -0.0196295 0.016286 0 0 0 -3.19594e-06 1.27988e-06 2.1248e-06 6.49515e-07 6.46083e-07 3.67561e-07 3.30817e-05 -0.000279354 9.58677e-05 0.004 662.874 -2.04919 
82 1 1 0.0291401 -0.0151359 0.0159325 0 0 0 -3.07913e-06 1.17505e-06 2.80313e-06 1.38609e-07 7.52565e-07 3.31777e-07 -0.000109045 -0.000212162 2.07429e-05 0.004 745.445 -2.47412 
1 1 1 0.0424683 -0.0178049 0.0178803 0 0 0 -1.16242e-06 5.01042e-07 9.72591e-07 3.92008e-08 1.93234e-07 6.8778e-08 -1.88484e-05 -5.90716e-05 -2.15459e-06 0.004 772.193 -2.07233 
168 1 1 -0.0224798 -0.0136303 0.016417 0 0 0 -2.33661e-06 6.89188e-07 -2.25044e-06 6.46402e-07 -2.40837e-07 -9.74431e-07 -5.17936e-05 -3.22643e-05 0.000148504 0.004 388.275 2.33472 
121 1 1 -0.00514896 -0.0120184 0.0174569 0 0 0 -3.61392e-06 1.79127e-06 -4.94624e-08 8.16602e-07 3.86068e-07 -3.90978e-07 -5.57957e-05 -0.000198131 6.94781e-05 0.004 517.266 0.522392 
28 1 1 0.00814311 -0.0139813 0.0183177 0 0 0 -4.51271e-06 2.66542e-06 2.54394e-06 6.71834e-07 9.48877e-07 4.26724e-07 -3.47908e-05 -0.000425795 0.000213844 0.004 625.761 -1.48042 
42 1 1 0.0200408 -0.0148104 0.017266 0 0 0 -4.11387e-06 1.6626e-06 3.21841e-06 4.041e-07 1.01081e-06 6.48731e-07 -5.20415e-05 -0.000157408 5.65675e-05 0.004 705.311 -2.41168 
60 1 1 0.0376281 -0.0116471 0.016172 0 0 0 -2.43515e-06 4.33411e-07 3.33602e-06 -1.43526e-07 4.98418e-07 2.35932e-07 -5.81716e-05 -0.000131933 -0.000130508 0.004 770.002 -2.07981 