ITEM: TIMESTEP
23200
ITEM: NUMBER OF ATOMS
890
ITEM: BOX BOUNDS mm mm mm
-0.05 0.05
-0.05 0.05
0 0.15
ITEM: ATOMS id type type x y z ix iy iz vx vy vz fx fy fz omegax omegay omegaz radius f_Temp[0] f_heatFlux[0] 
59 1 1 -0.000715523 -0.0460982 0.00395597 0 0 0 -9.75105e-07 -1.55383e-05 3.38147e-05 1.65725e-05 -1.15955e-05 -2.11567e-06 0.00435709 0.0120597 0.00361988 0.004 488.599 17.473 
170 1 1 -0.0173498 -0.0426414 0.00397303 0 0 0 2.13657e-05 -3.3162e-05 1.1525e-05 2.38299e-07 2.71495e-05 -2.91298e-05 0.00963315 0.00422358 -0.0126516 0.004 314.634 6.88724 
15 1 1 -0.00975019 -0.0449638 0.00393397 0 0 0 2.21051e-05 -2.2263e-05 5.49963e-06 4.36954e-05 4.47603e-05 -3.46705e-07 0.00397178 0.00216791 0.0127147 0.004 341.458 12.2748 
116 1 1 0.00648764 -0.0428196 0.00395868 0 0 0 -7.89124e-06 -1.8817e-05 2.95174e-05 6.06108e-06 -4.46109e-05 9.37312e-06 0.0141682 -0.0022766 -0.000283066 0.004 667.895 -9.27313 
158 1 1 0.0143627 -0.0437625 0.0038998 0 0 0 -1.54509e-05 -4.13254e-06 1.85545e-05 1.11831e-07 2.34311e-06 7.66774e-06 0.000731352 -0.00202961 0.00124142 0.004 759.783 -12.0632 
98 1 1 0.0216779 -0.0406526 0.00394261 0 0 0 -7.76763e-06 -4.28111e-06 1.2185e-05 -5.20529e-06 -7.75437e-06 8.13728e-06 0.00189855 0.000114818 0.000122002 0.004 789.944 -5.57755 
169 1 1 -0.0244315 -0.0390659 0.00391428 0 0 0 -1.07324e-05 -1.12077e-05 1.91419e-05 5.53755e-07 2.13751e-05 5.18581e-07 -0.00205896 -0.0058948 0.00903777 0.004 303.394 2.31185 
89 1 1 -0.0118119 -0.0369235 0.00395464 0 0 0 8.32528e-06 -1.78658e-06 4.02061e-05 -2.85535e-05 4.0789e-06 -4.78609e-05 -0.0033657 -0.00336903 0.0256299 0.004 347.049 11.0668 
152 1 1 -0.00418338 -0.0390222 0.00390523 0 0 0 3.10809e-05 -1.16849e-05 5.92331e-05 -4.31342e-05 -1.70972e-05 -1.3703e-06 -0.000908504 0.000142 -0.0218904 0.004 443.101 10.18 
23 1 1 0.0153483 -0.035882 0.00391129 0 0 0 -1.67046e-05 -9.79452e-06 3.8928e-05 -4.7163e-05 -4.36253e-06 2.59299e-05 0.00232101 0.00142636 0.00107564 0.004 773.917 -11.1627 
118 1 1 -0.0307532 -0.0342397 0.00392726 0 0 0 2.70525e-05 -1.01155e-05 -2.82569e-06 -8.04389e-05 7.47179e-05 -3.36896e-05 0.000806787 0.00392738 -0.0175858 0.004 300.437 0.422312 
30 1 1 -0.0188787 -0.0333718 0.0039528 0 0 0 -2.16774e-05 -5.46765e-05 2.52798e-05 1.2631e-05 8.20092e-05 -5.39183e-05 0.00546823 -0.0010678 -0.00867539 0.004 310.063 4.48554 
215 1 1 -0.00603628 -0.0313238 0.00390665 0 0 0 3.97723e-05 -4.93881e-05 2.1284e-05 -7.264e-05 6.33108e-05 -3.84595e-05 0.00369328 0.00794559 0.027844 0.004 393.805 17.4077 
74 1 1 0.00184149 -0.0338192 0.00390676 0 0 0 1.22196e-05 -2.99266e-05 6.62188e-05 -0.000138525 9.51752e-06 5.1732e-05 0.00329387 0.00439102 0.0181259 0.004 571.777 -8.69723 
24 1 1 0.0091786 -0.0308341 0.00392031 0 0 0 -4.67088e-06 -5.42193e-06 4.56742e-05 -7.88121e-05 -1.23776e-06 6.39304e-05 -0.000222641 -0.0015071 -0.00515486 0.004 723.933 -16.6301 
198 1 1 0.0259423 -0.0339523 0.00395554 0 0 0 2.01242e-05 -9.6475e-06 1.44468e-05 -2.94657e-05 -4.25973e-05 8.13252e-06 0.00479165 0.00794012 -0.00137092 0.004 797.875 -1.73221 
161 1 1 0.0335301 -0.0316074 0.00391361 0 0 0 6.4806e-06 1.21915e-05 -2.26884e-06 -1.20093e-05 -1.46448e-05 1.17338e-06 -0.00342864 -2.80815e-06 -0.000624248 0.004 799.6 -0.429939 
8 1 1 -0.0322698 -0.0264156 0.00398409 0 0 0 4.74532e-05 -3.74016e-06 4.19663e-05 -0.000107968 -0.000134503 -0.000123359 0.01042 -0.00572906 0.0108503 0.004 300.296 0.297241 
12 1 1 -0.0244142 -0.0276959 0.0038644 0 0 0 3.04457e-05 -2.20987e-05 4.3811e-05 -8.00498e-05 2.19875e-05 -2.77102e-05 0.00148365 0.00820602 -0.0101772 0.004 302.235 1.61248 
188 1 1 -0.0131742 -0.0277763 0.00396595 0 0 0 1.3852e-05 -0.000105033 -3.36067e-06 -0.000110876 0.000198025 -6.22696e-05 0.0101404 -0.0049783 -0.0189733 0.004 316.911 7.34467 
77 1 1 -0.000100261 -0.0260808 0.0038942 0 0 0 -2.33623e-05 -2.71878e-05 7.80945e-05 1.06582e-05 1.20656e-07 -6.75932e-05 0.00874119 -0.00977095 -0.00743042 0.004 525.116 6.93896 
113 1 1 0.0165644 -0.0280202 0.00388659 0 0 0 1.51047e-05 -2.63686e-05 3.66033e-05 -6.19724e-05 -1.75176e-05 2.87751e-05 0.00255402 0.00566616 -0.00831997 0.004 780.089 -8.89258 
183 1 1 0.0384541 -0.0253742 0.00393851 0 0 0 9.23355e-06 8.51636e-06 -1.72322e-07 -9.36516e-06 -1.07261e-05 -1.81474e-06 0.000384309 0.000787355 -0.00295718 0.004 799.93 -0.0930494 
162 1 1 -0.0396312 -0.023418 0.0039078 0 0 0 8.93438e-06 -8.81132e-06 1.24211e-05 2.73851e-05 -8.72535e-05 -1.89097e-05 -0.00279951 0.00114435 0.00201631 0.004 300.037 0.0490476 
53 1 1 -0.027206 -0.0202487 0.00395165 0 0 0 0.000168692 -1.94424e-05 9.3636e-05 -0.000132931 9.1169e-05 2.18099e-05 0.0119416 0.0157486 -0.0353238 0.004 300.767 0.690868 
148 1 1 -0.0187584 -0.0220642 0.00393824 0 0 0 2.19766e-05 -6.4767e-05 -1.59235e-05 -0.000144601 0.000184354 -0.000112043 0.0113161 0.00573697 0.0137621 0.004 305.412 3.34676 
195 1 1 -0.0072782 -0.0215499 0.00394579 0 0 0 6.17005e-05 1.21734e-07 1.86063e-05 -7.53909e-05 -7.81828e-05 -0.00012623 -0.00339593 0.00740799 0.0394525 0.004 354.79 15.9056 
179 1 1 0.00736623 -0.023103 0.00394274 0 0 0 2.25045e-06 -3.28109e-05 6.00019e-05 -1.69173e-05 4.05823e-05 1.48482e-06 0.00848263 0.00576754 0.00847276 0.004 733.014 -18.0157 
95 1 1 0.0148505 -0.0203099 0.00393213 0 0 0 3.50371e-06 -5.96106e-06 4.78126e-05 -2.32875e-05 -1.3845e-05 4.6328e-05 -0.00154618 0.0061893 0.00625002 0.004 777.426 -9.50381 
76 1 1 0.0230028 -0.0233056 0.00397475 0 0 0 1.46987e-05 5.10561e-06 1.71433e-05 -3.16895e-05 -6.63274e-05 2.73605e-05 0.000822181 0.00218038 0.0185172 0.004 797.786 -1.65149 
100 1 1 0.0325586 -0.0200894 0.00388604 0 0 0 1.65832e-05 2.30957e-05 2.29376e-06 -3.22898e-05 -3.15525e-05 -5.67791e-06 -0.00545323 0.00354536 0.00126451 0.004 799.747 -0.277327 
65 1 1 -0.0430742 -0.0162803 0.00393139 0 0 0 6.67984e-05 -8.45125e-06 4.6232e-05 -0.000106634 -5.04483e-05 -9.14564e-07 0.000300147 0.00825344 -0.0260463 0.004 300.01 0.0148826 
102 1 1 -0.0351582 -0.015518 0.00394432 0 0 0 7.997e-05 -3.48578e-05 8.87912e-05 -0.000221286 0.000141902 0.000162469 0.0214549 0.00313099 0.0525546 0.004 300.08 0.0996599 
213 1 1 -0.0132589 -0.0162738 0.00397379 0 0 0 2.33574e-05 -2.26908e-05 -3.37376e-05 8.17388e-05 7.61308e-05 -0.000155094 -0.00375567 0.00316299 -0.0221842 0.004 312.667 6.67562 
10 1 1 0.00114837 -0.0182522 0.00475016 0 0 0 -2.97845e-05 -7.07187e-05 6.61833e-05 1.2144e-05 -2.32581e-05 -0.000130059 -0.0176511 -0.00951305 0.00183709 0.004 600.537 -12.0138 
5 1 1 0.00879785 -0.0152552 0.00390319 0 0 0 -2.30902e-05 -2.48221e-05 4.12371e-05 -3.88463e-05 -2.60623e-05 2.75395e-05 -0.00513616 -0.00887342 -0.00074877 0.004 731.684 -14.3635 
96 1 1 0.0211692 -0.0155241 0.00395657 0 0 0 2.03173e-05 -7.15184e-06 5.79832e-06 1.32543e-05 -3.70598e-05 1.74072e-05 1.94273e-05 0.00501926 -0.0108877 0.004 796.143 -2.56339 
167 1 1 0.0421923 -0.0183682 0.00392114 0 0 0 4.94323e-06 4.98477e-06 -1.85182e-06 3.04829e-06 -4.47813e-06 -6.14046e-06 -0.00168804 0.00117788 0.00236295 0.004 799.992 -0.0125422 
124 1 1 -0.029011 -0.0104717 0.00394784 0 0 0 0.000174121 -3.80715e-05 -6.72908e-05 -7.94135e-05 0.000114427 0.000166962 -0.0176402 0.0546129 -0.0786894 0.004 300.588 0.568284 
220 1 1 -0.0217762 -0.0144542 0.00398045 0 0 0 0.000303507 -6.90497e-06 1.19637e-05 0.000230215 -3.40403e-05 1.53202e-05 0.0130938 0.0640814 0.0345432 0.004 304.073 2.55733 
144 1 1 -0.0053553 -0.0138037 0.00388195 0 0 0 2.76612e-05 -3.03416e-05 -8.35078e-06 2.9936e-05 8.37837e-07 -6.42636e-05 0.00287898 0.00405948 -0.0233227 0.004 445.401 13.4708 
26 1 1 0.00255561 -0.0104628 0.00390583 0 0 0 3.15726e-05 -4.60482e-05 -1.07316e-05 -1.19605e-06 -2.94561e-05 -2.71131e-05 0.00151013 0.00481346 -0.00635707 0.004 601.815 -8.5833 
194 1 1 0.0287352 -0.0131029 0.0039309 0 0 0 1.85476e-05 1.77143e-06 -6.26507e-06 -2.93417e-05 -2.77319e-05 -2.72605e-06 -0.00218723 0.0026252 0.00387489 0.004 799.459 -0.510555 
37 1 1 0.03667 -0.0122306 0.00393315 0 0 0 2.29471e-05 4.7302e-05 -1.14479e-05 -1.46304e-05 -5.02869e-05 -1.49046e-05 -0.00939596 0.00414294 0.0102769 0.004 799.96 -0.0504852 
219 1 1 0.0447285 -0.0108715 0.00390889 0 0 0 -5.72352e-06 1.93561e-06 -6.03123e-06 9.62349e-06 -2.26058e-06 -1.15054e-06 -0.000289494 -0.00228258 -0.000789905 0.004 799.999 -0.00194975 
636 1 1 -0.0451998 -0.00864277 0.00391762 0 0 0 9.67383e-05 -2.89939e-06 5.4532e-05 -4.72645e-05 -2.88785e-05 4.61043e-05 -0.00348624 0.0135898 0.00920229 0.004 300.002 0.00277098 
39 1 1 -0.0161469 -0.00885103 0.00389006 0 0 0 0.000143238 5.93547e-05 -9.98885e-05 0.000214477 -9.80476e-06 -8.84009e-05 -0.00749523 0.0235718 -0.00530189 0.004 322.556 8.22079 
171 1 1 -0.00396006 -0.0059782 0.00392061 0 0 0 9.02287e-05 -2.88042e-05 -3.19906e-05 9.11346e-05 -8.80223e-06 -6.37914e-05 0.00278924 0.005777 -0.00338505 0.004 454.967 14.2395 
200 1 1 0.0146297 -0.00986509 0.00396384 0 0 0 1.92052e-05 -4.2794e-05 -1.41076e-05 -2.65631e-05 -4.84379e-06 6.35771e-05 -0.00122785 0.00263731 -0.0122162 0.004 780.815 -8.00535 
21 1 1 0.0222518 -0.0076215 0.00394344 0 0 0 2.11151e-05 -2.56198e-05 -1.72405e-05 2.73039e-05 -3.00066e-05 6.64738e-06 0.00349289 0.00412938 0.013331 0.004 796.94 -2.09158 
17 1 1 0.0298455 -0.00520707 0.00394887 0 0 0 1.10381e-05 9.00934e-06 -3.35902e-05 2.64174e-07 -1.29395e-05 3.77519e-06 -0.00279304 0.00375105 -0.00206615 0.004 799.594 -0.404092 
477 1 1 -0.0445832 -0.000710864 0.00396287 0 0 0 4.33676e-05 -4.94021e-06 3.97385e-08 -1.40326e-05 4.03851e-05 -2.06937e-06 -0.000740262 0.0207739 0.0151874 0.004 300.004 0.00563843 
140 1 1 -0.0352671 -0.00371839 0.0038725 0 0 0 0.000195441 -0.000180975 -3.49213e-05 -0.000240798 0.000210701 5.80883e-05 0.046211 0.0388295 -0.00316402 0.004 300.203 0.220124 
119 1 1 -0.0273892 -0.00269825 0.00396393 0 0 0 0.00017067 -8.50148e-05 -0.000144797 1.18566e-05 1.40409e-05 0.000100239 0.0325256 0.0186289 0.0538147 0.004 301.591 1.2894 
207 1 1 -0.0194914 -0.00168721 0.00389532 0 0 0 6.42165e-05 6.21671e-05 -0.000136973 0.000204521 -0.000160973 -1.59957e-05 -0.00480154 0.00708848 0.0187586 0.004 309.958 5.48183 
69 1 1 -0.0111575 -0.00264545 0.00393025 0 0 0 7.61641e-05 3.80321e-05 -0.000130178 0.000137003 -2.00262e-05 -5.16247e-05 -0.0132927 -0.00611918 0.00638976 0.004 348.183 14.442 
221 1 1 0.00874784 -0.00448976 0.00393213 0 0 0 6.43275e-05 -5.90442e-05 -8.73504e-06 2.24573e-06 1.07637e-05 2.02488e-05 0.0121533 0.00699247 0.00733951 0.004 746.185 -12.6247 
457 1 1 0.0163503 -0.00208049 0.00395938 0 0 0 5.0396e-05 -2.66273e-05 -3.0311e-05 4.40144e-05 -8.15185e-06 1.7821e-05 -0.000140769 0.0087284 0.00308279 0.004 789.672 -5.50885 
155 1 1 0.0378911 -0.00224676 0.00393706 0 0 0 4.47356e-05 2.87325e-05 -2.41317e-05 1.68166e-06 -4.53199e-05 -2.66204e-05 -0.00697977 0.00967962 0.0258373 0.004 799.959 -0.0527467 
665 1 1 0.0459183 -0.00307628 0.00394264 0 0 0 8.27889e-06 -3.85921e-06 -1.56166e-07 7.69881e-06 1.08824e-05 -1.30758e-05 0.00216325 0.00218746 -0.0022259 0.004 799.998 -0.0031382 
120 1 1 0.0091849 -0.037109 0.00876933 0 0 0 -1.66382e-05 -1.90211e-06 9.84488e-05 -4.48299e-05 -4.06085e-05 6.79223e-05 -0.0107725 0.0010569 0.00160871 0.004 730.053 -16.2653 
9 1 1 -0.0247147 -0.033359 0.00937631 0 0 0 -1.64138e-05 -1.74936e-05 3.56765e-05 -8.37384e-05 -1.13771e-05 -8.4083e-05 0.00167301 0.00163235 -0.0157004 0.004 301.974 1.53228 
101 1 1 -0.0188614 -0.0277191 0.00955157 0 0 0 5.91502e-05 -3.22396e-05 9.38204e-06 -9.68319e-05 7.13024e-05 -6.59885e-05 -0.0132001 0.0103748 -0.00752233 0.004 305.643 3.66154 
48 1 1 0.0221999 -0.0293137 0.00920036 0 0 0 3.85028e-05 2.27844e-06 2.18281e-05 -7.16864e-05 -6.75935e-05 2.97004e-05 -0.0173184 0.0043066 0.012635 0.004 793.989 -3.77255 
75 1 1 0.02936 -0.0261744 0.00787431 0 0 0 1.79516e-05 3.56738e-05 -1.46538e-06 -2.12879e-05 -6.60343e-05 -1.03784e-05 0.00495529 -0.00214079 -0.00185363 0.004 799.103 -0.796032 
46 1 1 -0.0327912 -0.0205811 0.0095833 0 0 0 0.000132959 1.56301e-06 9.29733e-05 4.87777e-05 0.0001678 0.000224887 0.00695072 -0.0168563 -0.00382653 0.004 300.298 0.314797 
33 1 1 -0.013034 -0.0220249 0.00949589 0 0 0 4.24644e-05 -4.13612e-05 -3.79521e-05 -9.83195e-05 0.000198323 -0.000236106 -0.0116758 0.000788836 0.00980281 0.004 324.605 7.53969 
11 1 1 0.0268899 -0.0187446 0.00924474 0 0 0 2.61462e-05 3.66429e-05 3.49118e-05 -2.71061e-05 -6.95203e-05 1.49617e-05 -0.00199688 0.00915974 -0.00654159 0.004 798.733 -1.07799 
71 1 1 -0.037275 -0.00954724 0.008766 0 0 0 0.000290304 -0.000102104 7.93867e-05 -0.000281268 0.000144664 0.000139933 -0.0665287 0.0523216 -0.0502963 0.004 300.043 0.0577292 
62 1 1 -0.0228086 -0.00771371 0.00814054 0 0 0 0.000257202 1.59871e-05 -0.000200454 0.000382767 6.12144e-06 2.12019e-05 -0.0300551 -0.0407718 0.0230061 0.004 304.159 2.68717 
19 1 1 -0.00970707 -0.00905625 0.00849093 0 0 0 0.000126175 -1.51056e-05 -0.000119334 0.000206268 4.64078e-05 -3.10507e-05 -0.00062664 -0.027778 -0.012174 0.004 396.03 14.6327 
187 1 1 0.00796683 -0.00988188 0.00975764 0 0 0 -2.57048e-05 -3.81768e-06 3.00297e-05 3.93649e-05 2.3503e-05 2.96147e-05 -0.0245053 -0.0237978 -0.0244685 0.004 754.552 -15.3969 
157 1 1 0.0395815 -0.00751938 0.00963134 0 0 0 4.20174e-05 5.17647e-05 -1.64224e-05 2.68749e-05 -3.87822e-05 -6.98747e-05 0.00272516 -0.0107602 -0.020071 0.004 799.992 -0.0128215 
18 1 1 0.00229081 -0.0040488 0.00852672 0 0 0 0.000120684 -7.22623e-05 -4.34498e-05 -2.41283e-05 -1.01165e-05 -4.22272e-05 -0.00429474 -7.65511e-05 -0.0110334 0.004 595.412 -7.64231 
185 1 1 -0.00531143 -0.045735 0.0104437 0 0 0 -2.80599e-05 2.49203e-06 8.60693e-05 2.48908e-05 5.37852e-05 9.55834e-06 -0.00216277 -0.0238922 0.000960111 0.004 428.956 12.3536 
83 1 1 0.00256736 -0.0459473 0.011266 0 0 0 -2.93134e-05 2.95604e-06 0.000139362 5.62276e-05 4.96068e-08 1.14249e-05 0.02742 0.02056 0.0033511 0.004 622.949 -19.5888 
58 1 1 -0.0218569 -0.0405821 0.0112769 0 0 0 -5.27186e-05 1.38436e-05 9.55767e-05 3.49367e-05 -4.66547e-05 -0.000134741 0.0153516 -0.0179788 0.0132171 0.004 303.421 2.59596 
105 1 1 -0.013586 -0.043966 0.0108787 0 0 0 -4.13808e-05 -1.43723e-05 -5.87007e-06 -5.26523e-05 5.49118e-05 1.17349e-05 -0.0158387 -0.0238165 0.0109893 0.004 314.319 7.221 
223 1 1 0.0103957 -0.0448673 0.0106706 0 0 0 -2.46e-05 4.5887e-06 5.07731e-05 1.7732e-05 -2.08401e-05 2.28115e-05 0.00737895 0.00768529 -0.00551752 0.004 728.863 -18.2407 
217 1 1 0.0179433 -0.0424253 0.0108281 0 0 0 -2.91643e-05 -7.71279e-06 3.11876e-05 -1.4729e-05 -8.49614e-06 2.29686e-05 0.00586595 0.0028453 0.00597527 0.004 777.573 -9.92831 
6 1 1 -0.0162615 -0.0350312 0.0113115 0 0 0 -3.46114e-05 -1.60898e-05 0.000125377 1.54453e-05 5.63505e-05 -0.000137051 -0.0294708 0.00161854 -0.02718 0.004 313.773 6.99327 
151 1 1 -0.008013 -0.0382603 0.0108115 0 0 0 -1.05556e-06 -1.96035e-05 0.000111003 -2.93719e-05 8.33041e-05 -1.1306e-05 0.0179873 -0.0055382 -0.0165803 0.004 369.009 15.0999 
2 1 1 0.000443974 -0.0383079 0.010271 0 0 0 1.80778e-05 -2.36282e-05 0.000142384 -7.31864e-05 -3.22408e-05 3.60936e-05 -0.0125064 -0.0128323 0.002064 0.004 554.239 -6.50752 
117 1 1 0.0249195 -0.0387266 0.0109176 0 0 0 -2.82498e-05 2.00912e-05 1.06392e-05 -9.87189e-06 -3.6908e-05 2.76926e-05 -0.00461909 -8.99485e-05 0.00514369 0.004 795.11 -3.28509 
13 1 1 -0.0323456 -0.0327547 0.0115369 0 0 0 -8.12515e-06 2.19785e-05 2.37369e-06 1.93479e-05 -4.91615e-05 9.8507e-05 -0.00464552 -0.0109287 0.00321606 0.004 300.378 0.398105 
193 1 1 -0.00982582 -0.0305006 0.0107686 0 0 0 3.5336e-05 -6.79882e-05 3.19005e-05 -2.29495e-05 4.50739e-05 -6.3076e-05 -0.0188741 -0.00945809 0.00954253 0.004 354.373 15.8741 
47 1 1 -0.00133753 -0.0305433 0.0103847 0 0 0 -1.92626e-06 -3.42227e-05 0.000139504 -9.33046e-05 6.20543e-05 4.74202e-05 -0.00774035 0.0109467 0.00151526 0.004 508.493 8.73043 
153 1 1 0.00656466 -0.0300229 0.0113661 0 0 0 1.09633e-05 -1.59e-05 0.00010289 -0.00011841 -4.58758e-05 7.03703e-05 0.00243703 0.00958335 3.72709e-05 0.004 683.57 -15.1073 
41 1 1 0.0148077 -0.0317913 0.010654 0 0 0 3.71766e-05 -1.23271e-05 9.07224e-05 -0.000127361 -2.42724e-05 4.949e-05 0.00577282 0.0105992 -0.0124976 0.004 776.719 -10.4472 
163 1 1 0.0311565 -0.0339182 0.0111115 0 0 0 -5.47788e-06 3.17472e-05 1.04456e-05 -1.64273e-05 -4.14825e-05 1.52554e-05 0.00147987 0.000936883 -0.00584869 0.004 799.152 -0.774384 
214 1 1 -0.0375015 -0.0268266 0.0107138 0 0 0 2.95969e-05 8.00611e-06 1.31591e-05 4.80493e-05 4.25765e-05 0.000232565 0.00464837 0.000323476 -0.00549659 0.004 300.113 0.139006 
210 1 1 0.0364693 -0.0280971 0.0111135 0 0 0 1.0203e-05 2.15276e-05 4.20909e-06 -1.20752e-05 -2.21618e-05 -6.54406e-06 -0.00228342 0.000396666 -0.00178181 0.004 799.871 -0.150722 
108 1 1 -0.0260915 -0.0246405 0.0109304 0 0 0 8.64988e-05 3.5724e-05 9.62409e-05 -4.78001e-05 0.000173151 -0.00011195 -0.0164116 0.00236265 0.0018142 0.004 301.573 1.28485 
40 1 1 -0.00551121 -0.0238696 0.0113287 0 0 0 1.78213e-05 -2.01986e-05 8.77801e-05 -3.64399e-05 2.9836e-05 -0.000144448 0.00319194 -0.0281066 -0.00993444 0.004 421.992 13.1748 
55 1 1 0.00236196 -0.0232849 0.0108249 0 0 0 -2.72969e-05 -4.28565e-05 0.000152569 7.13582e-06 -5.97445e-05 -6.73154e-05 -0.00134263 0.00466191 0.00663546 0.004 609.431 -8.01101 
91 1 1 0.0120918 -0.0243835 0.0101856 0 0 0 -1.09775e-05 6.95382e-06 0.000108251 -8.73569e-05 -2.36031e-05 5.5134e-05 -0.00264208 -0.0203389 0.0162462 0.004 763.582 -13.3993 
112 1 1 0.0192793 -0.0205359 0.0105074 0 0 0 -3.12173e-05 2.34568e-05 6.00198e-05 -6.38321e-05 -6.38102e-05 7.41643e-05 -0.0029473 -0.0161875 0.01464 0.004 791.621 -5.07302 
178 1 1 0.0318657 -0.0225252 0.014479 0 0 0 3.92538e-05 6.10916e-05 -5.89642e-06 -1.82668e-05 -4.01177e-05 -3.00768e-05 -0.00439006 0.00602991 0.00270714 0.004 799.762 -0.260164 
131 1 1 0.0407765 -0.0214682 0.0110513 0 0 0 1.27619e-05 1.82058e-05 1.52468e-06 -2.02595e-06 -1.40258e-05 -2.2475e-05 -3.2466e-05 -0.000151289 -0.00308262 0.004 799.978 -0.0325737 
160 1 1 -0.0414721 -0.0199398 0.010813 0 0 0 6.73001e-05 3.06579e-05 1.54412e-05 -3.2775e-05 -0.000133759 -8.49687e-06 0.00129222 0.00789341 -0.0143391 0.004 300.016 0.023282 
43 1 1 -0.0361087 -0.0151007 0.0142594 0 0 0 0.000187798 -7.01912e-05 0.000200313 0.000192333 2.04196e-05 0.000230182 0.0439842 0.00461837 -0.0440635 0.004 300.139 0.157982 
4 1 1 -0.0270342 -0.0151185 0.0100739 0 0 0 0.000197216 -1.0316e-05 -4.49354e-05 -3.20381e-05 0.000103663 0.000167421 -0.0290225 0.028019 -0.00841708 0.004 301.17 0.994192 
104 1 1 -0.020301 -0.0192302 0.0111978 0 0 0 0.000124466 -1.21361e-05 -6.69512e-05 6.61479e-05 0.000146342 -0.000127395 -0.0329234 0.0166991 -0.0130625 0.004 306.226 3.59721 
20 1 1 -0.00745496 -0.0162216 0.0110958 0 0 0 9.10331e-05 -1.09877e-05 4.97551e-05 -4.00384e-05 -9.45229e-06 -0.000193576 -0.00949951 0.022697 -0.00153595 0.004 410.983 15.8477 
45 1 1 0.000824831 -0.016451 0.0146049 0 0 0 -1.45068e-05 -6.7091e-05 0.000154138 1.38743e-05 -8.36032e-05 -4.2126e-05 0.00225184 -2.58869e-05 -0.00697978 0.004 577.46 -9.74095 
159 1 1 0.00795144 -0.0177073 0.0113471 0 0 0 -7.2922e-05 -1.00619e-05 0.000113637 -2.02026e-07 -5.18266e-05 4.48219e-05 0.0041691 0.00461997 0.0109394 0.004 721.894 -14.2519 
136 1 1 0.0347929 -0.016337 0.0104657 0 0 0 3.60815e-05 4.90835e-05 -5.69148e-06 -1.56133e-05 -3.49889e-05 -2.76475e-05 0.00142033 -0.00251358 -0.00395841 0.004 799.909 -0.116514 
177 1 1 -0.0443275 -0.0125289 0.0108102 0 0 0 0.000165846 4.3661e-05 0.000190964 -7.31625e-05 -0.000138811 2.85686e-05 0.0143542 -0.0112847 -0.0024751 0.004 300.007 0.0106711 
139 1 1 -0.0168213 -0.012109 0.0110441 0 0 0 0.000188332 1.54054e-06 -0.000126783 0.000254199 -1.45774e-05 -9.20076e-05 0.0233508 0.000553581 -0.0112514 0.004 316.532 7.1236 
211 1 1 -0.00209568 -0.0104146 0.0103077 0 0 0 8.51661e-05 -5.30416e-05 2.28909e-05 6.86339e-05 -5.10238e-05 -4.22584e-05 -0.00526521 -0.00315814 -0.00288571 0.004 510.522 2.45729 
54 1 1 0.0149153 -0.0138956 0.0108309 0 0 0 -3.16957e-05 -1.80107e-05 -3.94767e-06 -1.31197e-05 -6.6086e-06 8.51825e-05 -0.0150298 0.017081 -0.0221999 0.004 782.869 -7.54544 
84 1 1 0.0232717 -0.0118007 0.0106604 0 0 0 6.30962e-05 3.44586e-06 -1.0571e-05 2.72274e-05 -3.93774e-05 6.30731e-07 -0.00940528 -0.00157162 0.00479124 0.004 798.041 -1.61643 
180 1 1 0.0438203 -0.0140996 0.0110466 0 0 0 -1.28535e-06 1.40425e-05 -2.4434e-06 2.47617e-05 -1.41406e-05 -1.90803e-05 -0.00341552 0.00293564 0.00376347 0.004 799.997 -0.00458838 
103 1 1 0.0174437 -0.00636542 0.0105709 0 0 0 6.35551e-05 -5.72805e-05 -4.82314e-05 8.98693e-05 -9.02848e-06 8.33603e-06 0.010394 -0.00504594 0.00172003 0.004 791.609 -5.0971 
156 1 1 0.0308889 -0.00946094 0.0106302 0 0 0 4.3137e-05 3.49081e-05 -3.79929e-05 1.31748e-05 -3.20764e-05 -7.78372e-06 -0.00822823 0.00251066 0.00181309 0.004 799.651 -0.374806 
197 1 1 -0.0457831 -0.00471129 0.010757 0 0 0 0.000141593 -1.33876e-05 5.56038e-05 -1.06093e-05 8.44442e-05 -5.89208e-05 -0.0153714 0.0103131 -0.00146518 0.004 300.002 0.00407407 
87 1 1 -0.038606 -0.00381263 0.0141382 0 0 0 0.000125374 -4.49798e-06 -0.000144148 -0.000350831 0.000287228 -1.28552e-05 0.0196635 -0.0268823 0.118215 0.004 300.022 0.0308895 
130 1 1 -0.0313597 -0.00387369 0.0107776 0 0 0 0.000352311 -5.75402e-05 -0.000200425 -0.000173637 -0.000154074 0.000196393 -0.0459058 0.0176913 0.00698787 0.004 300.3 0.31759 
604 1 1 -0.0224599 -0.000300822 0.0110799 0 0 0 0.000191399 1.43184e-05 -0.000217868 0.000296754 -0.000105478 -0.000122542 0.0164578 0.0167351 -0.0105757 0.004 307.36 4.16276 
146 1 1 -0.0155082 -0.00400711 0.0103916 0 0 0 0.000121359 -1.36492e-05 -0.000260457 0.00031277 -4.7787e-05 -1.93794e-06 0.0247896 -0.00727809 0.00795486 0.004 332.315 10.7803 
57 1 1 -0.00517568 -0.00310593 0.0111957 0 0 0 0.000135426 -6.31384e-05 -0.000110527 0.000110187 2.82387e-05 -4.04621e-05 -0.0121091 0.00406219 0.00155344 0.004 455.631 12.7268 
493 1 1 0.0116952 -0.000874835 0.0103669 0 0 0 8.09066e-05 -7.02673e-05 -3.63202e-05 0.000133873 3.254e-05 -1.9847e-06 -0.00895003 0.00471298 0.000535495 0.004 770.714 -11.7813 
31 1 1 0.025048 -0.00405397 0.0104603 0 0 0 4.02404e-05 -1.22242e-05 -4.805e-05 5.99608e-05 -1.64396e-05 -1.47373e-05 -0.000966821 0.00502058 0.00367627 0.004 798.099 -1.57319 
588 1 1 0.0325996 -0.00174506 0.0105433 0 0 0 2.81694e-05 1.76541e-05 -6.42821e-05 3.45146e-05 -2.16524e-05 1.60239e-05 0.000952023 0.00280577 0.00371504 0.004 799.622 -0.402476 
63 1 1 0.0459239 -0.00327874 0.0119254 0 0 0 2.28711e-05 1.27192e-05 -8.67371e-06 1.16778e-05 -2.14228e-05 -4.14669e-05 -0.0134378 -0.00120131 0.00238886 0.004 799.995 -0.00756808 
107 1 1 -0.00850626 -0.045273 0.0176768 0 0 0 -4.67496e-05 2.45218e-05 0.000132037 -1.39819e-05 -4.08977e-06 -3.21034e-05 0.0226403 0.00738955 -0.00793726 0.004 392.733 17.6131 
222 1 1 -0.00141957 -0.0418099 0.017113 0 0 0 2.1658e-05 -9.24588e-07 0.000172955 -3.0575e-05 -6.25518e-05 -1.19585e-05 0.00109105 0.00313452 -0.0050536 0.004 519.33 6.82912 
142 1 1 0.00615866 -0.0401387 0.0154211 0 0 0 1.54689e-05 2.15867e-05 0.000172079 -1.39916e-05 -4.823e-05 5.9008e-05 0.00541292 0.00921285 0.0032262 0.004 662.084 -12.6652 
172 1 1 0.0116014 -0.0446444 0.0189547 0 0 0 2.28809e-05 2.60965e-05 0.000103502 4.30552e-06 -4.76328e-05 2.38499e-05 0.0115803 0.00910254 -0.00626583 0.004 741.153 -16.6204 
109 1 1 0.0204197 -0.0412796 0.0183141 0 0 0 -2.5013e-05 1.05494e-06 1.85173e-05 -2.12626e-05 -2.0949e-05 3.59231e-05 0.000882751 -0.000395456 0.00913313 0.004 792.087 -4.71407 
150 1 1 -0.0273272 -0.0370831 0.0158763 0 0 0 -5.37672e-05 6.45364e-06 3.81113e-05 5.93562e-05 -0.000137973 -9.91745e-05 -0.00185678 -0.00705335 -0.00226143 0.004 301.432 1.24896 
38 1 1 -0.0197788 -0.0373719 0.0182822 0 0 0 -9.81417e-05 5.806e-06 0.000171177 2.91699e-05 1.92247e-05 -0.000123995 -0.031409 -0.0120451 -0.012404 0.004 307.867 4.79458 
199 1 1 -0.0118544 -0.0370266 0.01765 0 0 0 -8.87101e-05 -6.77855e-05 0.000219397 -2.39666e-05 4.64204e-05 4.25617e-05 0.0123224 -0.00932026 -0.00192328 0.004 326.583 10.917 
93 1 1 0.0137643 -0.0377758 0.0156807 0 0 0 1.62677e-05 1.20446e-06 0.000112104 -5.92636e-05 -3.49011e-05 5.81145e-05 0.000154581 0.0190127 -0.0116592 0.004 762.105 -12.5032 
64 1 1 0.0280175 -0.0365092 0.0179286 0 0 0 -2.32967e-05 4.87467e-05 1.09408e-05 5.78686e-05 -4.92e-05 4.62953e-05 0.00403239 -0.000870703 -0.00559391 0.004 799.191 -0.76999 
22 1 1 -0.0327403 -0.032422 0.0194567 0 0 0 1.26469e-05 2.6799e-05 1.18418e-05 0.000128366 -7.97973e-05 -2.76025e-05 0.0198689 0.0200646 -0.00865436 0.004 300.346 0.365736 
174 1 1 -0.0224319 -0.0302105 0.0162619 0 0 0 -2.62741e-05 -1.02497e-05 2.52187e-05 -0.000127867 6.44746e-06 -0.000153109 -0.00901425 -0.0129478 -0.00579168 0.004 303.898 2.86902 
32 1 1 -0.0042831 -0.0343965 0.0166774 0 0 0 1.12156e-05 -8.29326e-05 0.000209063 -5.05512e-05 -6.00842e-05 6.72995e-05 0.0115444 -0.0074323 0.024973 0.004 442.751 17.6481 
128 1 1 0.0034746 -0.0331318 0.0179958 0 0 0 6.71932e-05 8.08434e-05 0.000222007 -9.91991e-05 -9.81229e-05 0.000107904 -0.0300975 0.0170427 0.00193091 0.004 598.766 -5.74014 
88 1 1 0.0113686 -0.0304832 0.0177099 0 0 0 8.61827e-05 4.74042e-05 0.000115925 -7.5645e-05 -8.14279e-05 0.000140771 -0.0198778 0.0023747 -0.00977799 0.004 755.707 -13.4698 
137 1 1 0.0208046 -0.0338184 0.0156334 0 0 0 5.57744e-05 5.16651e-05 7.32933e-05 -6.85634e-05 -7.44228e-05 -2.37935e-05 0.0168436 0.0184675 -0.0357127 0.004 796.798 -2.59504 
154 1 1 0.033982 -0.0311386 0.0180552 0 0 0 7.38797e-06 4.38798e-05 2.48964e-05 -1.36809e-05 -2.8043e-05 -5.31701e-06 -0.00219847 0.0038261 -0.00566995 0.004 799.768 -0.251808 
52 1 1 -0.031991 -0.0252344 0.0161623 0 0 0 3.12845e-05 0.000119086 7.5623e-05 0.000122564 7.76686e-05 0.000110022 -0.0288372 -0.0127124 0.0143836 0.004 300.45 0.443277 
80 1 1 -0.00960114 -0.0265064 0.0175805 0 0 0 -1.81615e-05 -0.000112319 6.21947e-05 1.56431e-05 -6.73477e-05 -3.45759e-05 0.0232074 0.00554995 0.0253171 0.004 360.833 15.7498 
125 1 1 -0.00117363 -0.0266999 0.0173742 0 0 0 -4.13198e-05 -2.82942e-05 0.000202172 -6.65164e-05 -2.24724e-06 -1.01124e-05 0.0177404 -0.0101037 0.0327193 0.004 493.499 15.6739 
72 1 1 0.0179271 -0.0264314 0.0156371 0 0 0 1.9884e-05 7.06137e-05 0.000110792 -5.13989e-05 -8.94228e-05 2.54913e-05 -0.0153832 -0.0133622 0.0375889 0.004 790.039 -5.71864 
34 1 1 0.0269647 -0.028725 0.0154183 0 0 0 2.67342e-05 8.24593e-05 2.18753e-05 -2.42422e-05 -8.04908e-05 -4.92413e-06 -0.00691062 -0.00536962 -0.00736052 0.004 798.701 -1.08761 
218 1 1 -0.0395968 -0.0234663 0.0176914 0 0 0 -6.90568e-07 2.52931e-05 -3.52497e-05 4.00517e-05 -0.000131447 0.000195314 -0.0186927 -0.014726 0.00506058 0.004 300.047 0.0601968 
70 1 1 -0.0247176 -0.0230258 0.0185785 0 0 0 9.5261e-05 1.04399e-05 0.000128335 0.000156436 7.75597e-05 -6.63804e-05 0.03439 0.0052626 -0.0328106 0.004 303.077 2.13545 
132 1 1 -0.0171324 -0.0242633 0.0164745 0 0 0 6.24801e-05 -7.78586e-05 3.56421e-05 -3.28112e-05 3.95564e-05 -8.52194e-05 0.0158516 -0.00950735 -0.0227608 0.004 313.661 6.55182 
196 1 1 0.00716634 -0.0237887 0.0170602 0 0 0 -2.55312e-06 -2.00145e-05 0.000174415 -4.03719e-05 -6.72209e-05 6.07984e-05 0.0328762 0.00347936 0.0418075 0.004 713.401 -15.4009 
362 1 1 0.0243871 -0.021429 0.0170619 0 0 0 4.67944e-05 7.14087e-05 8.0644e-06 -1.40112e-05 -6.69842e-05 -5.09586e-05 0.0112131 -0.0102651 0.000865744 0.004 798.799 -1.02297 
49 1 1 0.0387627 -0.0248026 0.0179816 0 0 0 1.42455e-05 3.17986e-05 4.4812e-06 -1.53914e-05 -7.18957e-06 -2.69391e-05 -0.00174977 0.000706575 -0.00126938 0.004 799.964 -0.0500699 
173 1 1 -0.0431191 -0.0163148 0.0177076 0 0 0 9.28141e-05 -8.2891e-05 0.000173576 1.03171e-05 4.2851e-05 4.90982e-05 0.0820575 -0.00345133 -0.0152695 0.004 300.03 0.0403841 
50 1 1 -0.0295066 -0.016766 0.0182809 0 0 0 0.000206542 -1.25207e-05 2.34482e-05 0.000241419 0.000150272 0.000313192 -0.108964 0.0374926 0.0218088 0.004 300.942 0.811296 
202 1 1 -0.013462 -0.0172165 0.016111 0 0 0 0.000112844 -5.81058e-05 4.08043e-05 2.18482e-05 1.41996e-05 -0.00015734 -0.0131347 -0.0368438 0.0319173 0.004 335.763 12.1244 
86 1 1 -0.00524887 -0.0199156 0.0183758 0 0 0 -6.31858e-05 -6.48311e-05 0.000125003 2.77822e-05 -2.32104e-05 9.73986e-06 -0.0171961 -0.0186983 -0.012073 0.004 438.983 14.7156 
129 1 1 0.0138595 -0.0196294 0.0162861 0 0 0 -4.18622e-05 5.5266e-05 8.83096e-05 -2.53404e-05 -3.0493e-05 6.27633e-05 -0.0135873 0.0195611 -0.0170134 0.004 772.113 -9.8793 
82 1 1 0.0291398 -0.0151357 0.0159327 0 0 0 5.10811e-05 8.14599e-05 9.5817e-06 1.39533e-05 -3.58469e-05 -2.63611e-05 -0.0100539 0.000978182 0.00425796 0.004 799.66 -0.367342 
1 1 1 0.0424682 -0.0178048 0.0178804 0 0 0 2.08569e-05 2.33213e-05 1.97929e-06 1.00484e-06 -1.12416e-05 -2.78326e-05 -0.000525058 0.000871056 -0.00298533 0.004 799.99 -0.0161311 
168 1 1 -0.0224801 -0.0136303 0.016417 0 0 0 0.000179063 -3.23384e-05 -0.000156681 0.000162122 6.77576e-05 4.98551e-05 0.0038826 -0.020333 -0.00560314 0.004 305.132 3.29164 
121 1 1 -0.00514935 -0.0120183 0.0174572 0 0 0 5.25843e-05 -2.44708e-05 5.0366e-05 6.2359e-05 -3.17637e-05 -2.49433e-05 -0.0071068 -0.0269401 -0.0013398 0.004 475.022 5.52423 
28 1 1 0.00814262 -0.0139809 0.0183181 0 0 0 2.93489e-05 -3.91835e-05 0.000129485 0.000121081 -4.39372e-05 1.75541e-05 -0.0105807 0.02673 -0.0123285 0.004 743.331 -16.7288 
42 1 1 0.0200405 -0.0148102 0.0172663 0 0 0 3.41075e-05 2.39725e-05 2.23826e-07 1.08838e-05 -4.64485e-05 3.45599e-06 -0.00385908 -0.00728338 0.00248444 0.004 793.887 -3.5559 
60 1 1 0.0376278 -0.011647 0.0161723 0 0 0 1.6562e-05 5.47826e-05 -8.59375e-06 7.65853e-05 5.07381e-06 -7.49263e-05 -0.000683984 0.00442099 0.00750562 0.004 799.979 -0.0305499 
135 1 1 -0.0452122 -0.008651 0.0176755 0 0 0 5.27092e-05 9.72891e-05 0.000335576 -8.08345e-05 -0.000127212 1.06103e-05 -0.0480391 -0.0916728 -0.00589832 0.004 300.005 0.00776715 
81 1 1 -0.037613 -0.00944772 0.0199374 0 0 0 0.000263861 -0.000121418 7.93775e-05 -0.000143292 -0.0005886 0.000865838 0.0563578 0.291132 -0.0666007 0.004 300.03 0.0403485 
190 1 1 -0.0303492 -0.00906451 0.0166845 0 0 0 8.88731e-05 -5.91714e-05 -0.000408621 -0.000104193 -0.000102522 0.00041626 0.0332467 -0.137132 0.024078 0.004 300.305 0.327733 