ITEM: TIMESTEP
40800
ITEM: NUMBER OF ATOMS
890
ITEM: BOX BOUNDS mm mm mm
-0.05 0.05
-0.05 0.05
0 0.15
ITEM: ATOMS id type type x y z ix iy iz vx vy vz fx fy fz omegax omegay omegaz radius f_Temp[0] f_heatFlux[0] 
59 1 1 -0.00071555 -0.0460982 0.00395597 0 0 0 -1.1593e-07 8.96569e-08 2.29781e-07 1.9209e-07 1.06817e-07 1.52689e-07 3.36027e-05 2.97248e-05 -9.16732e-06 0.004 539.211 0.334547 
170 1 1 -0.0173498 -0.0426414 0.00397301 0 0 0 -1.02159e-07 8.15879e-08 9.95543e-08 1.75518e-07 1.18206e-07 1.45619e-07 1.02424e-05 -1.1447e-05 1.97101e-05 0.004 424.195 3.09923 
15 1 1 -0.00975016 -0.0449638 0.00393396 0 0 0 -7.31904e-08 1.8558e-07 1.65533e-07 1.47087e-07 2.14507e-07 1.58831e-07 -3.60996e-05 -2.67803e-05 2.24963e-05 0.004 457.614 2.5759 
116 1 1 0.00648761 -0.0428197 0.00395869 0 0 0 -3.10125e-07 1.51378e-07 3.96466e-07 2.41986e-07 2.8203e-07 2.42913e-07 5.63517e-05 -5.95336e-05 6.45023e-05 0.004 604.721 -1.30634 
158 1 1 0.0143627 -0.0437625 0.0038998 0 0 0 -3.51184e-07 2.79109e-07 4.42063e-07 1.18794e-07 1.72877e-07 1.23106e-07 -2.48984e-05 -5.03943e-05 4.08184e-06 0.004 649.903 -2.27751 
98 1 1 0.0216779 -0.0406527 0.00394261 0 0 0 -2.78282e-07 1.59307e-07 3.6939e-07 2.02725e-07 9.14592e-08 2.34262e-08 1.70089e-05 5.09969e-06 1.13809e-05 0.004 690.035 -2.87125 
169 1 1 -0.0244315 -0.0390659 0.00391427 0 0 0 -8.36627e-08 1.03857e-07 9.84254e-08 2.41563e-07 1.58954e-07 1.39888e-07 2.04961e-06 -1.75765e-05 9.98639e-06 0.004 384.805 3.24961 
89 1 1 -0.011812 -0.0369235 0.00395462 0 0 0 -2.4858e-07 1.83755e-07 3.25386e-07 3.31739e-07 1.79443e-07 2.63181e-07 -1.56361e-05 -4.4517e-05 -1.8953e-05 0.004 447.736 2.38652 
152 1 1 -0.00418342 -0.0390223 0.00390523 0 0 0 -2.91407e-07 2.58959e-07 6.3789e-07 4.02428e-07 2.77407e-07 4.27025e-07 5.08397e-06 -4.12752e-05 3.34028e-05 0.004 507.295 1.07215 
23 1 1 0.0153483 -0.035882 0.00391129 0 0 0 -6.03444e-07 3.31977e-07 9.03897e-07 4.27442e-07 2.69772e-07 1.95295e-07 3.33947e-05 -4.18101e-05 2.47238e-05 0.004 660.835 -2.44021 
118 1 1 -0.0307533 -0.0342397 0.00392725 0 0 0 -1.24513e-07 6.92749e-08 -7.09645e-09 2.23421e-07 8.76426e-08 9.07197e-08 -1.37779e-05 -3.05959e-05 1.60686e-05 0.004 354.644 3.15701 
30 1 1 -0.0188787 -0.0333717 0.00395275 0 0 0 -2.4473e-07 3.1185e-07 2.97776e-07 4.92001e-07 2.1856e-07 2.19823e-07 -1.6017e-05 -2.24682e-05 1.9189e-05 0.004 397.845 3.01526 
215 1 1 -0.00603631 -0.0313238 0.00390661 0 0 0 -4.66417e-07 4.84412e-07 6.8953e-07 4.96213e-07 3.93243e-07 3.97007e-07 -9.35951e-05 -1.43376e-05 -3.16792e-05 0.004 486.417 1.49613 
74 1 1 0.0018414 -0.0338192 0.00390679 0 0 0 -6.69271e-07 4.5574e-07 8.8805e-07 5.31653e-07 3.10059e-07 4.08059e-07 -7.91386e-05 -8.85953e-05 3.71304e-05 0.004 556.992 -0.125059 
24 1 1 0.00917856 -0.0308342 0.00392034 0 0 0 -8.46833e-07 3.55132e-07 9.50564e-07 6.55454e-07 3.46063e-07 4.38495e-07 -7.40786e-05 -7.55112e-05 -2.48791e-05 0.004 625.479 -1.69057 
198 1 1 0.0259423 -0.0339524 0.00395551 0 0 0 -5.91696e-07 1.49581e-07 6.70015e-07 3.61431e-07 2.10125e-07 1.02362e-07 6.28959e-05 -5.10642e-05 0.000104593 0.004 722.494 -3.05046 
161 1 1 0.0335301 -0.0316074 0.00391358 0 0 0 -3.72954e-07 3.41944e-07 4.96252e-07 1.7578e-07 1.70272e-07 1.95443e-08 -1.62027e-05 1.34874e-05 -2.88316e-05 0.004 747.574 -2.88948 
8 1 1 -0.0322699 -0.0264156 0.00398405 0 0 0 -2.35976e-07 9.13889e-08 -7.86323e-09 3.22091e-07 1.29061e-07 1.58857e-07 3.367e-07 1.106e-05 1.8834e-05 0.004 346.038 2.87626 
12 1 1 -0.0244143 -0.0276959 0.00386439 0 0 0 -3.53116e-07 2.57626e-07 1.53462e-07 6.07532e-07 2.94133e-07 3.21268e-07 -1.33557e-05 -6.59368e-05 2.51802e-05 0.004 372.026 3.04112 
188 1 1 -0.0131742 -0.0277762 0.00396588 0 0 0 -5.11962e-07 4.4575e-07 5.61346e-07 7.08096e-07 2.16703e-07 8.4912e-08 -1.15971e-05 -5.88965e-05 4.11171e-05 0.004 417.549 2.81337 
77 1 1 -0.000100245 -0.0260809 0.00389416 0 0 0 -6.46781e-07 5.07422e-07 7.10433e-07 1.04386e-06 3.76195e-07 5.68386e-07 -7.74711e-05 -0.000160783 4.895e-05 0.004 542.757 0.174821 
113 1 1 0.0165643 -0.0280203 0.00388659 0 0 0 -8.71534e-07 2.91443e-07 9.43845e-07 6.34422e-07 2.63102e-07 1.56827e-07 -5.47579e-05 -8.97881e-05 3.42642e-05 0.004 677.831 -2.54918 
183 1 1 0.0384541 -0.0253742 0.00393847 0 0 0 -4.00576e-07 2.95284e-07 5.17518e-07 1.89264e-07 8.8531e-08 -1.36722e-08 1.85608e-05 4.00721e-05 -1.26441e-06 0.004 765.452 -2.50854 
162 1 1 -0.0396311 -0.023418 0.00390783 0 0 0 -1.57072e-07 1.21753e-07 2.77048e-10 1.814e-07 -9.54308e-09 -1.60149e-08 -2.17062e-05 -3.34109e-05 -1.5201e-05 0.004 328.32 2.32191 
53 1 1 -0.027206 -0.0202486 0.00395168 0 0 0 -5.43653e-07 3.03467e-07 -7.43826e-09 6.44066e-07 1.16383e-07 1.68885e-07 -5.84824e-05 -0.000103643 2.52012e-05 0.004 355.846 2.89801 
148 1 1 -0.0187584 -0.0220642 0.00393817 0 0 0 -6.11934e-07 4.60862e-07 2.22368e-07 9.12616e-07 2.74859e-07 2.92244e-07 -0.000102782 -0.000117549 2.5635e-05 0.004 395.146 3.03132 
195 1 1 -0.00727817 -0.02155 0.00394566 0 0 0 -1.56938e-06 1.45896e-07 7.89683e-07 1.13781e-06 1.95123e-07 4.22392e-07 -2.85437e-05 -0.000392286 -0.000173174 0.004 472.443 1.85024 
179 1 1 0.00736629 -0.0231031 0.00394274 0 0 0 -1.16155e-06 3.24574e-07 5.32226e-07 9.58398e-07 4.16098e-07 6.74605e-07 -2.38104e-05 -0.000280244 6.89978e-05 0.004 624.35 -1.71564 
95 1 1 0.0148506 -0.02031 0.00393211 0 0 0 -1.26508e-06 2.77953e-07 1.28553e-06 8.03474e-07 2.83599e-07 3.13457e-07 -4.62988e-05 -0.000182235 -3.57325e-05 0.004 674.018 -2.48318 
76 1 1 0.0230028 -0.0233057 0.00397473 0 0 0 -1.00019e-06 2.59992e-07 8.58537e-07 6.62148e-07 4.90644e-07 1.42584e-07 -1.59954e-05 -0.00020343 2.34695e-05 0.004 728.165 -2.99663 
100 1 1 0.0325586 -0.0200895 0.00388596 0 0 0 -1.08799e-06 5.97855e-07 1.20556e-06 5.89765e-07 3.59249e-07 8.77474e-08 -2.67796e-05 -0.000138747 3.33149e-05 0.004 757.192 -2.64686 
65 1 1 -0.0430742 -0.0162802 0.00393146 0 0 0 -1.38412e-07 1.63179e-07 -9.33024e-08 1.08112e-07 -5.29481e-08 5.11364e-09 -1.77195e-05 1.0674e-05 3.15939e-05 0.004 320.348 1.94415 
102 1 1 -0.0351583 -0.0155178 0.0039445 0 0 0 -4.4392e-07 3.96179e-07 -7.86e-08 4.74891e-07 -4.95711e-08 4.20146e-08 -0.0001158 -8.66444e-05 -1.00505e-05 0.004 331.301 2.28763 
213 1 1 -0.0132588 -0.0162738 0.00397365 0 0 0 -6.41577e-07 3.98963e-07 2.84342e-07 9.96766e-07 1.55052e-07 1.9591e-07 -9.17203e-06 -1.24833e-05 8.00077e-06 0.004 421.084 2.76297 
10 1 1 0.00114845 -0.0182524 0.00475003 0 0 0 -1.19156e-06 3.81515e-07 9.51274e-07 1.34206e-06 3.78715e-07 5.76167e-07 2.23316e-05 0.000283301 -3.62756e-05 0.004 564.346 -0.409503 
5 1 1 0.0087979 -0.0152553 0.00390315 0 0 0 -1.26625e-06 2.9845e-07 1.07042e-06 9.53175e-07 3.71256e-07 4.77644e-07 -2.74032e-05 -0.000137249 -2.34373e-05 0.004 633.616 -1.85538 
96 1 1 0.0211693 -0.0155242 0.00395652 0 0 0 -1.22121e-06 2.37241e-07 1.03576e-06 5.76564e-07 3.51333e-07 3.94794e-07 -4.42933e-05 -0.000122687 5.95725e-05 0.004 722.457 -2.8421 
167 1 1 0.0421923 -0.0183683 0.00392112 0 0 0 -4.62062e-07 2.72077e-07 3.1461e-07 1.38442e-07 3.45324e-08 -1.32788e-08 -7.51193e-05 -0.000101813 -2.27342e-05 0.004 779.375 -2.00437 
124 1 1 -0.029011 -0.0104716 0.00394791 0 0 0 -6.35531e-07 4.43632e-07 -9.44695e-08 6.3132e-07 -6.70972e-08 1.22983e-07 -6.94514e-05 -0.000129204 4.49998e-05 0.004 349.804 2.60663 
220 1 1 -0.0217759 -0.0144543 0.00398045 0 0 0 -7.56237e-07 4.42701e-07 7.82418e-08 8.10356e-07 -8.04673e-08 1.68009e-07 -0.000131533 -0.000151886 2.40431e-05 0.004 376.238 2.84444 
144 1 1 -0.00535517 -0.0138038 0.00388181 0 0 0 -1.16194e-06 3.07366e-07 1.14474e-06 1.21559e-06 2.19103e-07 5.84132e-07 -5.09682e-05 -0.000239847 9.34986e-06 0.004 507.231 0.828677 
26 1 1 0.00255572 -0.0104629 0.00390569 0 0 0 -1.20517e-06 2.53109e-07 1.18929e-06 1.07879e-06 3.29747e-07 1.23862e-07 7.09163e-05 -6.90563e-05 4.70429e-05 0.004 568.673 -0.532625 
194 1 1 0.0287352 -0.013103 0.00393081 0 0 0 -1.40877e-06 5.52822e-07 1.29319e-06 7.49062e-07 3.86141e-07 1.7563e-07 -4.47063e-05 -0.000225792 5.80356e-05 0.004 751.074 -2.69948 
37 1 1 0.0366701 -0.0122308 0.00393306 0 0 0 -1.06747e-06 4.49525e-07 1.34172e-06 5.15872e-07 4.1545e-07 -1.14197e-07 -0.000183269 -0.000172879 -0.000255216 0.004 773.719 -2.18686 
219 1 1 0.0447285 -0.0108715 0.00390888 0 0 0 -3.03579e-07 1.77468e-07 1.92849e-07 6.19131e-08 5.02669e-08 -3.38857e-08 -8.54464e-05 -6.64987e-05 -4.60446e-05 0.004 785.537 -1.69191 
636 1 1 -0.0451997 -0.00864275 0.00391771 0 0 0 -1.62989e-07 1.22184e-07 -7.65565e-08 1.8403e-08 -2.93282e-08 -7.70272e-08 -1.43764e-05 -2.48689e-05 2.14334e-06 0.004 314 1.60199 
39 1 1 -0.0161466 -0.00885108 0.00388991 0 0 0 -8.72357e-07 3.84595e-07 2.55658e-07 1.03146e-06 9.85746e-09 3.31099e-07 -5.80828e-05 -0.000152081 9.53752e-06 0.004 414.058 2.37987 
171 1 1 -0.00395985 -0.00597828 0.00392048 0 0 0 -1.10923e-06 2.66553e-07 8.55243e-07 1.13221e-06 2.14587e-07 3.60484e-07 -6.08631e-05 -0.000124906 -2.43306e-05 0.004 511.831 0.678413 
200 1 1 0.0146298 -0.0098652 0.00396379 0 0 0 -1.51854e-06 2.83916e-07 1.08536e-06 7.92323e-07 2.43981e-07 3.47338e-07 -8.2852e-05 -0.000195791 2.0537e-05 0.004 679.906 -2.59177 
21 1 1 0.022252 -0.00762162 0.00394337 0 0 0 -1.46535e-06 2.57909e-07 1.20195e-06 6.27403e-07 3.46608e-07 3.10955e-07 -6.40373e-05 -0.000207849 4.65854e-06 0.004 725.136 -2.8553 
17 1 1 0.0298456 -0.00520717 0.00394876 0 0 0 -1.51815e-06 3.66451e-07 1.64608e-06 6.7502e-07 3.82576e-07 -9.69034e-08 -4.92822e-05 -0.000317828 -2.96768e-06 0.004 750.808 -2.72621 
477 1 1 -0.0445832 -0.000710815 0.00396286 0 0 0 -2.26217e-07 1.01439e-07 -1.41238e-07 -3.64252e-10 2.3591e-08 -1.21203e-07 -1.37565e-05 -4.45576e-05 1.25784e-06 0.004 313.259 1.52081 
140 1 1 -0.0352672 -0.00371827 0.00387249 0 0 0 -3.78128e-07 3.95215e-07 -1.65962e-07 2.52665e-07 4.1388e-08 5.71352e-09 -0.000106892 -5.62924e-05 3.8903e-05 0.004 332.185 2.11987 
119 1 1 -0.0273891 -0.00269834 0.00396392 0 0 0 -5.84075e-07 5.36446e-07 -3.01347e-07 5.06201e-07 -8.3236e-08 2.00339e-07 -8.72848e-05 -3.09566e-05 -4.36736e-05 0.004 356.871 2.48481 
207 1 1 -0.0194911 -0.00168728 0.00389515 0 0 0 -7.76291e-07 4.17656e-07 -1.95372e-07 7.71098e-07 -1.1091e-07 2.48582e-07 -7.19188e-05 -0.000141103 -1.84093e-05 0.004 394.004 2.44677 
69 1 1 -0.0111573 -0.00264551 0.0039301 0 0 0 -9.4285e-07 3.42944e-07 2.43688e-07 9.22092e-07 2.61409e-08 2.02621e-07 -7.05186e-05 -0.000135302 -1.46553e-05 0.004 450.583 1.81664 
221 1 1 0.00874803 -0.00448988 0.00393203 0 0 0 -1.45234e-06 2.78672e-07 7.40825e-07 7.09762e-07 3.2245e-07 3.41485e-07 4.86654e-06 -0.000114623 5.58185e-05 0.004 642.835 -2.04851 
457 1 1 0.0163505 -0.0020806 0.0039593 0 0 0 -1.52998e-06 3.7049e-07 8.54399e-07 6.73638e-07 5.69643e-08 2.38311e-07 -0.000209235 -0.000298703 -9.55374e-05 0.004 691.365 -2.72033 
155 1 1 0.0378912 -0.00224685 0.00393693 0 0 0 -1.20529e-06 2.89546e-07 1.32978e-06 3.86007e-07 4.14366e-07 -6.12162e-08 -3.3603e-05 -0.00029554 0.000122529 0.004 775.974 -1.99668 
665 1 1 0.0459183 -0.00307627 0.00394261 0 0 0 -6.47954e-07 -6.47971e-09 2.99095e-07 1.11012e-07 8.24142e-08 -1.38185e-08 8.39703e-05 -0.000152994 0.000114229 0.004 785.627 -1.64911 
120 1 1 0.00918486 -0.0371091 0.00876936 0 0 0 -1.08219e-06 4.56291e-07 1.38923e-06 9.03069e-07 5.2132e-07 5.94503e-07 -2.44759e-05 -2.94711e-05 5.0175e-05 0.004 627.041 -1.78883 
9 1 1 -0.0247147 -0.033359 0.00937624 0 0 0 -4.77025e-07 3.35516e-07 1.36597e-07 7.91562e-07 3.38237e-07 3.99573e-07 -3.26081e-05 -7.02727e-05 6.90773e-05 0.004 375.099 3.15387 
101 1 1 -0.0188615 -0.0277191 0.0095515 0 0 0 -8.911e-07 6.64877e-07 5.87083e-07 1.26537e-06 5.08766e-07 3.77403e-07 -2.72233e-05 -8.5137e-05 3.88703e-05 0.004 393.099 2.9877 
48 1 1 0.0221998 -0.0293138 0.00920033 0 0 0 -1.29123e-06 4.79023e-07 1.42134e-06 8.59811e-07 5.81799e-07 2.20956e-07 -0.00015942 -7.66761e-06 -0.000142188 0.004 712.161 -2.84239 
75 1 1 0.02936 -0.0261745 0.00787423 0 0 0 -1.10601e-06 4.1271e-07 1.23654e-06 7.31723e-07 5.48055e-07 2.38941e-07 8.51395e-05 -3.12838e-05 0.000137762 0.004 744.36 -2.83577 
46 1 1 -0.0327912 -0.0205809 0.00958352 0 0 0 -8.01813e-07 5.48798e-07 4.97867e-08 9.37998e-07 9.8509e-08 1.22984e-07 1.344e-05 7.74537e-05 -2.45836e-05 0.004 342.879 2.59239 
33 1 1 -0.013034 -0.0220249 0.00949571 0 0 0 -1.78145e-06 5.6678e-07 1.14343e-06 1.6519e-06 2.87769e-07 3.11396e-07 -3.4921e-05 -0.000300083 -0.000138349 0.004 422.598 2.64993 
11 1 1 0.02689 -0.0187448 0.00924464 0 0 0 -2.24299e-06 4.29041e-07 2.06956e-06 1.22468e-06 7.25115e-07 3.92186e-07 9.46899e-05 2.68986e-05 0.000113997 0.004 739.943 -2.79812 
71 1 1 -0.0372751 -0.00954696 0.00876625 0 0 0 -5.29784e-07 6.15127e-07 -1.65372e-07 2.98668e-07 -4.83719e-08 -4.95386e-08 0.000121021 2.67758e-05 -6.6432e-05 0.004 325.048 2.01401 
62 1 1 -0.0228082 -0.00771372 0.00814041 0 0 0 -1.25894e-06 7.78581e-07 -1.84954e-07 1.17551e-06 -6.38611e-08 4.69306e-07 -2.1365e-05 -1.75158e-05 -1.16214e-05 0.004 375.815 2.65653 
19 1 1 -0.00970674 -0.00905634 0.00849073 0 0 0 -1.97554e-06 7.29314e-07 9.88149e-07 2.10372e-06 3.50113e-07 8.57511e-07 -7.70343e-05 -6.12807e-05 -1.55796e-05 0.004 475.009 1.35021 
187 1 1 0.00796707 -0.00988206 0.00975754 0 0 0 -1.72648e-06 8.15467e-07 1.23595e-06 -7.20808e-07 1.01938e-06 7.15547e-07 -0.000212766 -3.11124e-06 -0.000109746 0.004 628.348 -2.02163 
157 1 1 0.0395817 -0.00751949 0.00963114 0 0 0 -1.93606e-06 4.20904e-07 2.23816e-06 5.80539e-07 5.01691e-07 -1.91402e-07 0.000122152 -0.00019389 0.000199578 0.004 780.815 -1.87105 
18 1 1 0.0022911 -0.00404902 0.00852647 0 0 0 -2.15265e-06 3.85088e-07 1.79707e-06 1.85657e-06 3.57657e-07 4.91103e-07 -2.82784e-05 -1.01719e-05 4.8868e-05 0.004 567.071 -0.457538 
185 1 1 -0.00531148 -0.045735 0.0104438 0 0 0 -2.25024e-07 3.09542e-07 4.94199e-07 4.91345e-07 2.8696e-07 2.31586e-07 2.97894e-05 -1.62995e-05 -1.79327e-05 0.004 501.28 1.34042 
83 1 1 0.00256736 -0.0459473 0.0112661 0 0 0 -4.25899e-07 2.90786e-07 9.78674e-07 4.92591e-07 3.167e-07 4.6489e-07 0.000233979 -0.00010843 5.45719e-05 0.004 563.512 -0.263243 
58 1 1 -0.0218568 -0.0405821 0.0112769 0 0 0 -2.9995e-07 2.90969e-07 1.80155e-07 6.73104e-07 1.09956e-07 1.35598e-07 -1.07106e-05 -4.57979e-05 7.89676e-05 0.004 389.624 3.19289 
105 1 1 -0.013586 -0.043966 0.0108788 0 0 0 -2.00541e-07 -2.56103e-08 2.58204e-07 3.56803e-07 1.35663e-07 3.75151e-07 7.56981e-05 -2.65128e-05 5.57074e-05 0.004 437.678 3.21357 
223 1 1 0.0103957 -0.0448674 0.0106706 0 0 0 -5.77131e-07 3.55703e-07 1.03662e-06 4.39663e-07 2.89966e-07 4.82752e-07 0.000135882 0.000101622 1.33194e-05 0.004 620.373 -1.64869 
217 1 1 0.0179432 -0.0424253 0.0108281 0 0 0 -7.48651e-07 4.55044e-07 8.84719e-07 4.02158e-07 1.88626e-07 -1.98502e-08 0.000102356 2.23243e-05 6.97191e-05 0.004 666.821 -2.56833 
6 1 1 -0.0162615 -0.0350311 0.0113114 0 0 0 -7.95988e-07 6.19793e-07 6.73347e-07 1.00032e-06 5.49475e-07 6.68276e-07 2.11945e-05 -0.000111885 5.7845e-05 0.004 415.202 2.83641 
151 1 1 -0.00801308 -0.0382603 0.0108115 0 0 0 -7.57215e-07 5.05442e-07 8.86314e-07 7.80202e-07 6.35278e-07 6.6885e-07 -1.42382e-05 -9.29316e-05 0.000112601 0.004 472.695 1.94113 
2 1 1 0.000443917 -0.038308 0.010271 0 0 0 -9.77662e-07 7.27171e-07 1.44138e-06 9.532e-07 6.39333e-07 6.97303e-07 -4.46006e-05 -0.000133137 9.44049e-05 0.004 549.312 0.0551763 
117 1 1 0.0249196 -0.0387267 0.0109176 0 0 0 -7.02838e-07 5.19265e-07 7.16561e-07 2.6646e-07 2.11561e-07 -5.56944e-08 2.52824e-05 -1.46586e-06 4.30908e-05 0.004 709.321 -3.00084 
13 1 1 -0.0323455 -0.0327547 0.011537 0 0 0 -3.58276e-07 2.29968e-07 -9.67863e-08 4.95212e-07 1.27837e-07 1.97896e-07 -2.26936e-05 -1.36571e-05 -1.01594e-05 0.004 352.737 2.99508 
193 1 1 -0.0098258 -0.0305006 0.0107685 0 0 0 -1.03905e-06 7.54375e-07 1.58223e-06 1.40662e-06 8.05529e-07 1.08663e-06 0.000147753 -7.28855e-05 5.41738e-06 0.004 462.92 1.96596 
47 1 1 -0.00133758 -0.0305434 0.0103848 0 0 0 -1.40423e-06 1.04775e-06 1.51848e-06 1.78205e-06 7.68994e-07 1.12189e-06 -4.34855e-05 1.24578e-05 -2.62189e-05 0.004 538.237 0.287498 
153 1 1 0.00656462 -0.0300231 0.0113662 0 0 0 -2.10716e-06 8.76874e-07 2.16599e-06 1.82546e-06 7.72268e-07 1.0954e-06 -1.72763e-05 -6.23469e-05 1.68931e-05 0.004 604.248 -1.26547 
41 1 1 0.0148076 -0.0317915 0.010654 0 0 0 -1.68497e-06 8.70942e-07 1.87811e-06 1.34773e-06 6.12696e-07 5.95817e-07 -4.64463e-05 -0.000125843 6.40733e-05 0.004 666.291 -2.47123 
163 1 1 0.0311565 -0.0339183 0.0111114 0 0 0 -7.17289e-07 6.01502e-07 8.68924e-07 2.49428e-07 2.69109e-07 1.37022e-07 2.14648e-05 1.57596e-05 -4.04746e-05 0.004 742.734 -2.90344 
214 1 1 -0.0375015 -0.0268265 0.010714 0 0 0 -4.15211e-07 2.2422e-07 -3.48946e-08 5.07854e-07 9.90431e-08 8.35593e-08 3.79276e-05 -1.7092e-05 7.68308e-05 0.004 336.925 2.54858 
210 1 1 0.0364694 -0.0280971 0.0111135 0 0 0 -7.37153e-07 4.3415e-07 9.10846e-07 3.03122e-07 2.13528e-07 1.16219e-07 4.86886e-05 2.50827e-05 2.57364e-05 0.004 764.309 -2.50594 
108 1 1 -0.0260915 -0.0246404 0.0109305 0 0 0 -1.04032e-06 5.96154e-07 1.76443e-07 1.36611e-06 6.07297e-07 4.66771e-07 -6.4231e-05 -7.50762e-05 4.92402e-05 0.004 364.093 2.84579 
40 1 1 -0.00551113 -0.0238697 0.0113285 0 0 0 -2.18832e-06 9.11392e-07 1.74514e-06 2.15741e-06 7.08222e-07 1.01492e-06 -0.000133682 0.000263637 0.00018884 0.004 496.306 1.17301 
55 1 1 0.00236207 -0.0232851 0.0108248 0 0 0 -2.80909e-06 1.14174e-06 2.04249e-06 2.22002e-06 6.48413e-07 1.27963e-06 -1.72018e-05 -0.000527603 -2.12932e-06 0.004 573.996 -0.562092 
91 1 1 0.0120918 -0.0243837 0.0101856 0 0 0 -2.46742e-06 8.77222e-07 2.15475e-06 1.90799e-06 8.57011e-07 8.18571e-07 8.5014e-05 -0.000109908 0.000128315 0.004 650.524 -2.19581 
112 1 1 0.0192794 -0.0205361 0.0105073 0 0 0 -2.75244e-06 7.23026e-07 3.26016e-06 1.73492e-06 8.10539e-07 4.69039e-07 -0.00022953 1.20132e-06 -0.000107494 0.004 696.858 -2.78566 
178 1 1 0.0318658 -0.0225254 0.0144788 0 0 0 -2.36286e-06 6.66181e-07 2.15469e-06 1.08976e-06 5.34757e-07 2.77736e-07 -4.46445e-05 -0.00013343 2.83188e-05 0.004 758.78 -2.60948 
131 1 1 0.0407765 -0.0214683 0.0110513 0 0 0 -9.21779e-07 5.27735e-07 8.41336e-07 3.60582e-07 1.14715e-07 2.63195e-08 6.05109e-05 0.000106573 5.67718e-06 0.004 775.354 -2.14325 
160 1 1 -0.0414721 -0.0199398 0.0108131 0 0 0 -3.48769e-07 2.89162e-07 -8.21989e-08 2.48328e-07 -4.85279e-08 -7.46684e-08 -2.14004e-05 -4.8944e-05 -3.14354e-05 0.004 323.002 2.06361 
43 1 1 -0.0361086 -0.0151005 0.0142598 0 0 0 -9.96753e-07 1.00962e-06 -3.14269e-07 7.22663e-07 -2.25922e-07 -1.9059e-07 -0.000186214 -0.000113795 9.72253e-05 0.004 330.943 2.17826 
4 1 1 -0.0270343 -0.0151184 0.010074 0 0 0 -1.36033e-06 7.00087e-07 7.3421e-08 1.4666e-06 3.02131e-07 2.78442e-07 1.00549e-05 -0.000137328 6.73858e-05 0.004 358.519 2.74829 
104 1 1 -0.020301 -0.0192302 0.0111977 0 0 0 -1.55448e-06 1.0253e-06 4.66998e-07 1.82082e-06 4.83181e-07 5.7563e-07 1.52487e-05 -4.87497e-05 4.46482e-05 0.004 387.626 2.79776 
20 1 1 -0.00745481 -0.0162218 0.0110955 0 0 0 -2.66427e-06 9.51297e-07 1.74605e-06 2.47294e-06 6.43594e-07 1.26848e-06 -3.0397e-05 -0.000101763 -6.51258e-05 0.004 489.193 1.18017 
45 1 1 0.000825043 -0.0164513 0.0146047 0 0 0 -3.70373e-06 1.27947e-06 3.14253e-06 3.0802e-06 5.83483e-07 1.56492e-06 0.000177827 5.14031e-05 -1.49158e-05 0.004 557.101 -0.229878 
159 1 1 0.00795158 -0.0177076 0.011347 0 0 0 -3.0908e-06 1.10411e-06 2.91214e-06 2.29862e-06 8.44072e-07 1.37055e-06 -8.41113e-05 -0.000101003 -8.91523e-05 0.004 627.412 -1.71637 
136 1 1 0.0347931 -0.0163371 0.0104656 0 0 0 -2.2796e-06 7.75506e-07 2.34068e-06 1.02289e-06 5.32002e-07 1.04063e-08 0.000148593 -1.23361e-05 0.000139372 0.004 766.528 -2.37926 
177 1 1 -0.0443274 -0.0125289 0.0108104 0 0 0 -3.42059e-07 3.30749e-07 -1.62761e-07 1.45547e-07 -8.38566e-08 -1.12526e-07 -1.04518e-05 -2.07469e-05 4.76808e-05 0.004 317.732 1.77462 
139 1 1 -0.016821 -0.0121092 0.0110438 0 0 0 -2.0244e-06 1.16907e-06 7.536e-07 2.13138e-06 3.22551e-07 5.90012e-07 -0.000152475 -0.000245417 4.81511e-05 0.004 406.636 2.46435 
211 1 1 -0.00209541 -0.0104148 0.0103075 0 0 0 -2.53067e-06 6.96699e-07 2.26011e-06 2.63811e-06 3.79452e-07 9.53599e-07 -0.000180615 -0.000246696 -4.57102e-05 0.004 530.443 0.303489 
54 1 1 0.0149155 -0.0138957 0.0108309 0 0 0 -3.08859e-06 7.99628e-07 2.47669e-06 2.01073e-06 8.24296e-07 9.06134e-07 -0.000206246 -7.31493e-05 6.38591e-05 0.004 679.085 -2.63188 
84 1 1 0.023272 -0.0118009 0.0106602 0 0 0 -3.55641e-06 5.16347e-07 2.68588e-06 1.69851e-06 6.7809e-07 6.42749e-07 -1.72925e-05 -0.000311678 1.59793e-05 0.004 729.23 -2.82433 
180 1 1 0.0438204 -0.0140997 0.0110465 0 0 0 -8.9755e-07 4.77638e-07 9.41184e-07 2.89476e-07 1.30648e-07 -1.24118e-07 6.43878e-05 2.32394e-05 -2.28513e-07 0.004 783.705 -1.7726 
103 1 1 0.0174441 -0.0063656 0.0105707 0 0 0 -3.72722e-06 6.0684e-07 2.40875e-06 1.90778e-06 4.91191e-07 6.9058e-07 0.000124211 -7.39317e-05 3.58491e-07 0.004 697.179 -2.70466 
156 1 1 0.0308891 -0.00946111 0.0106299 0 0 0 -3.13277e-06 6.76786e-07 3.08406e-06 1.38554e-06 6.97413e-07 2.15151e-08 7.01527e-05 -7.46051e-05 3.22534e-05 0.004 754.289 -2.58511 
197 1 1 -0.0457831 -0.0047112 0.0107571 0 0 0 -2.89147e-07 2.82473e-07 -1.45439e-07 -3.59554e-08 -2.06398e-08 -2.49219e-07 -2.21863e-05 -1.85525e-06 1.70374e-05 0.004 313.909 1.56034 
87 1 1 -0.0386059 -0.00381153 0.0141381 0 0 0 -2.67892e-07 1.31614e-06 -1.11608e-09 -1.94874e-07 -5.14155e-08 -5.87707e-07 -0.00028077 -3.51671e-05 -1.06413e-05 0.004 320.319 1.7957 
130 1 1 -0.0313597 -0.00387382 0.0107775 0 0 0 -3.55768e-07 1.27358e-06 -2.03808e-07 2.58081e-07 2.67172e-08 -4.64791e-08 -0.00010754 8.01028e-05 0.000215486 0.004 337.569 2.23878 
604 1 1 -0.0224595 -0.000300848 0.0110796 0 0 0 -1.98491e-06 1.1973e-06 -7.47728e-07 1.64069e-06 -1.50134e-08 4.19367e-07 -0.000101014 -0.000163551 -1.1968e-06 0.004 381.579 2.42649 
146 1 1 -0.0155078 -0.00400725 0.0103913 0 0 0 -2.00864e-06 1.06385e-06 2.82566e-07 1.85181e-06 1.62068e-07 5.27784e-07 -0.000125775 -8.93785e-05 -3.58477e-05 0.004 424.894 2.07237 
57 1 1 -0.00517524 -0.00310605 0.0111954 0 0 0 -2.67022e-06 6.94041e-07 1.24261e-06 2.47438e-06 6.28279e-08 1.03196e-06 -1.11191e-05 -0.000303298 -5.29173e-05 0.004 511.401 0.698958 
493 1 1 0.0116956 -0.000875023 0.0103666 0 0 0 -3.64339e-06 7.30288e-07 2.20129e-06 1.92959e-06 9.57396e-08 6.6992e-07 -0.000157702 -0.000418397 -9.80292e-05 0.004 660.58 -2.22261 
31 1 1 0.0250484 -0.00405415 0.0104601 0 0 0 -3.48972e-06 6.55259e-07 2.74005e-06 1.50699e-06 6.10368e-07 2.77484e-07 -0.000131022 -0.000256151 -2.36211e-05 0.004 732.074 -2.71146 
588 1 1 0.0325998 -0.00174523 0.0105431 0 0 0 -2.84586e-06 6.926e-07 2.90266e-06 1.06528e-06 7.3135e-07 -1.55763e-07 -9.0089e-05 -3.99766e-05 -2.20264e-05 0.004 755.963 -2.45271 
63 1 1 0.045924 -0.00327879 0.0119253 0 0 0 -1.25842e-06 3.70843e-07 1.32401e-06 4.09494e-07 2.39766e-07 -1.23481e-07 -0.000197392 0.000283396 -0.000144995 0.004 784.355 -1.68202 
107 1 1 -0.00850634 -0.045273 0.017677 0 0 0 -6.86465e-07 3.59578e-07 6.79714e-07 8.77058e-07 3.17675e-07 3.64314e-07 5.67408e-05 -9.69368e-05 8.90068e-05 0.004 485.917 1.56736 
222 1 1 -0.00141961 -0.0418101 0.0171129 0 0 0 -1.43465e-06 1.03237e-06 1.70811e-06 1.38326e-06 6.29869e-07 8.15837e-07 -6.45482e-05 -0.000151473 0.000107565 0.004 541.885 0.245733 
142 1 1 0.00615863 -0.0401388 0.0154212 0 0 0 -1.33955e-06 8.57343e-07 2.11453e-06 1.28466e-06 8.98909e-07 8.8649e-07 -4.08484e-05 -2.40815e-05 -3.68215e-05 0.004 594.945 -1.05116 
172 1 1 0.0116013 -0.0446446 0.0189547 0 0 0 -1.06021e-06 6.18013e-07 1.51843e-06 9.25559e-07 5.12619e-07 4.79771e-07 0.000251128 -4.88574e-05 0.000172843 0.004 629.531 -1.87655 
109 1 1 0.0204197 -0.0412797 0.0183142 0 0 0 -6.92819e-07 6.93442e-08 8.16036e-07 6.26998e-07 2.56546e-07 1.05054e-07 0.000152771 0.00011859 4.81569e-05 0.004 691.217 -3.09982 
150 1 1 -0.0273271 -0.0370832 0.0158763 0 0 0 -5.172e-07 3.54179e-07 1.96569e-08 6.62339e-07 1.46968e-07 2.06789e-07 -4.62981e-05 -2.53795e-05 3.85873e-05 0.004 370.117 3.11748 
38 1 1 -0.0197788 -0.0373719 0.0182823 0 0 0 -1.00733e-06 6.0599e-07 3.83608e-07 1.03945e-06 4.61117e-07 7.31422e-07 6.65258e-05 -9.04121e-05 6.93334e-05 0.004 401.73 2.95711 
199 1 1 -0.0118545 -0.0370266 0.01765 0 0 0 -1.27384e-06 7.54289e-07 1.09278e-06 1.29462e-06 8.31092e-07 9.71039e-07 -3.76643e-05 -4.74193e-05 -4.03363e-05 0.004 437.636 2.51123 
93 1 1 0.0137643 -0.0377759 0.0156807 0 0 0 -1.65635e-06 8.07481e-07 2.21484e-06 1.48007e-06 6.25379e-07 5.44475e-07 7.98246e-07 2.19058e-05 4.84063e-05 0.004 650.593 -2.27423 
64 1 1 0.0280176 -0.0365092 0.0179286 0 0 0 -1.22658e-06 2.32724e-07 1.02937e-06 4.49107e-07 2.2986e-07 1.86908e-07 0.000147542 -6.60026e-05 0.000221211 0.004 734.244 -3.21672 
22 1 1 -0.0327402 -0.032422 0.0194567 0 0 0 -7.22489e-07 4.41516e-07 -9.93879e-08 7.02986e-07 2.43909e-07 1.83696e-07 1.49746e-06 -2.53322e-05 0.00016818 0.004 348.783 2.83429 
174 1 1 -0.0224319 -0.0302105 0.0162617 0 0 0 -1.46504e-06 8.22392e-07 5.03225e-07 1.51583e-06 5.60944e-07 5.62005e-07 3.70042e-05 -9.16284e-05 7.72606e-05 0.004 386.851 2.96274 
32 1 1 -0.00428311 -0.0343967 0.0166775 0 0 0 -2.06053e-06 9.77059e-07 1.88838e-06 1.93536e-06 9.54998e-07 1.27565e-06 7.59343e-05 -0.000126623 -3.7481e-06 0.004 514.518 0.871713 
128 1 1 0.00347459 -0.033132 0.0179959 0 0 0 -2.69643e-06 9.89357e-07 3.17341e-06 2.41632e-06 1.20876e-06 1.54722e-06 0.00012075 -0.000154357 0.000147207 0.004 571.458 -0.528353 
88 1 1 0.0113687 -0.0304834 0.0177099 0 0 0 -3.50044e-06 8.68147e-07 2.99981e-06 2.71567e-06 1.1108e-06 1.3388e-06 8.08324e-05 -9.21726e-05 0.000173834 0.004 647.662 -2.14601 
137 1 1 0.0208046 -0.0338186 0.0156333 0 0 0 -1.50192e-06 6.29355e-07 1.97599e-06 1.40311e-06 5.60651e-07 4.05419e-07 0.000207224 0.000145407 0.000104723 0.004 705.994 -3.12434 
154 1 1 0.033982 -0.0311387 0.0180551 0 0 0 -1.01382e-06 4.17409e-07 1.02281e-06 5.15391e-07 2.16294e-07 2.30774e-07 0.000103505 8.33559e-05 -2.31912e-06 0.004 760.367 -2.58543 
52 1 1 -0.031991 -0.0252343 0.0161625 0 0 0 -1.25438e-06 7.4896e-07 -2.9834e-08 1.21188e-06 3.17085e-07 3.05259e-07 -0.000108234 -9.46237e-05 7.98594e-05 0.004 345.425 2.61296 
80 1 1 -0.009601 -0.0265066 0.0175805 0 0 0 -2.48404e-06 1.05943e-06 2.61243e-06 2.69913e-06 8.91706e-07 1.38176e-06 -1.87577e-05 -0.000313931 -9.52156e-07 0.004 463.151 1.79438 
125 1 1 -0.00117363 -0.0267001 0.0173742 0 0 0 -3.096e-06 1.03838e-06 3.08389e-06 2.92101e-06 1.33202e-06 1.71156e-06 0.000330779 -0.000651588 -1.40439e-05 0.004 538.137 0.249297 
72 1 1 0.0179273 -0.0264316 0.015637 0 0 0 -3.46335e-06 1.10818e-06 3.83104e-06 2.53951e-06 9.16088e-07 9.93302e-07 0.000156328 -0.000343304 0.00018596 0.004 688.823 -2.81969 
34 1 1 0.0269647 -0.0287251 0.0154182 0 0 0 -1.91123e-06 6.91665e-07 1.90463e-06 9.15993e-07 6.51962e-07 5.00507e-07 0.000125297 -0.000102523 0.000171556 0.004 741.342 -2.81202 
218 1 1 -0.0395968 -0.0234663 0.0176916 0 0 0 -7.48852e-07 4.87927e-07 -1.69273e-07 5.42888e-07 4.34736e-08 2.36223e-08 -1.03118e-05 -4.58571e-06 9.50466e-07 0.004 326.38 2.15345 
70 1 1 -0.0247175 -0.0230258 0.0185786 0 0 0 -2.14826e-06 1.28665e-06 3.99251e-07 1.90737e-06 5.5873e-07 6.01648e-07 -8.80075e-05 -9.9076e-05 5.66121e-05 0.004 368.922 2.68875 
132 1 1 -0.0171323 -0.0242634 0.0164744 0 0 0 -2.09704e-06 1.27104e-06 1.19015e-06 2.18848e-06 5.86733e-07 8.63815e-07 -1.68773e-05 -0.000156714 5.558e-05 0.004 406.005 2.62377 
196 1 1 0.0071665 -0.023789 0.0170601 0 0 0 -4.9101e-06 1.13661e-06 4.17257e-06 3.19265e-06 1.1793e-06 1.90698e-06 -7.95376e-05 0.000100923 -0.000110314 0.004 623.658 -1.60627 
362 1 1 0.0243874 -0.0214292 0.0170617 0 0 0 -4.2385e-06 7.86651e-07 3.3791e-06 2.49342e-06 1.01229e-06 1.44388e-06 0.000211906 -2.34482e-05 0.000214762 0.004 740.36 -2.78054 
49 1 1 0.0387627 -0.0248027 0.0179815 0 0 0 -1.09649e-06 4.40176e-07 1.037e-06 6.23001e-07 1.21182e-07 1.20157e-07 -2.21629e-05 -2.8198e-05 5.15607e-05 0.004 772.342 -2.26572 
173 1 1 -0.0431191 -0.0163148 0.0177078 0 0 0 -6.53477e-07 6.62127e-07 -3.16596e-07 4.49825e-07 -1.8752e-07 -1.78672e-07 -6.00965e-05 4.26596e-05 0.00011533 0.004 321.383 1.87664 
50 1 1 -0.0295064 -0.0167659 0.0182812 0 0 0 -1.85524e-06 1.67196e-06 1.8507e-07 1.45803e-06 1.95628e-07 -1.20606e-07 1.88181e-05 -2.83182e-05 -0.000121385 0.004 346.892 2.38816 
202 1 1 -0.0134619 -0.0172167 0.0161107 0 0 0 -2.76936e-06 1.54379e-06 1.77559e-06 2.6071e-06 1.04084e-06 1.38973e-06 -1.07817e-05 -3.77288e-05 -1.70499e-05 0.004 434.739 2.09103 
86 1 1 -0.00524867 -0.0199157 0.0183757 0 0 0 -3.5376e-06 1.2937e-06 3.81339e-06 3.13412e-06 1.04908e-06 1.51238e-06 5.76561e-06 0.000107591 7.19686e-05 0.004 508.383 0.848761 
129 1 1 0.0138597 -0.0196295 0.016286 0 0 0 -4.70276e-06 7.65362e-07 3.84808e-06 3.03968e-06 1.09893e-06 1.46403e-06 0.000112734 -0.000345363 9.5569e-05 0.004 671.142 -2.4018 
82 1 1 0.0291401 -0.0151359 0.0159325 0 0 0 -3.99358e-06 9.30485e-07 3.26231e-06 2.19659e-06 8.2208e-07 6.3911e-07 -0.000109193 -0.000249035 3.29562e-05 0.004 754.887 -2.58553 
1 1 1 0.0424682 -0.0178049 0.0178803 0 0 0 -1.46442e-06 4.12519e-07 1.10262e-06 7.98993e-07 1.08955e-07 -1.23992e-07 7.56883e-06 -7.28291e-05 -3.07037e-06 0.004 779.688 -1.93279 
168 1 1 -0.0224798 -0.0136304 0.0164169 0 0 0 -2.46623e-06 1.5022e-06 3.20195e-07 2.02725e-06 5.31885e-07 6.21139e-07 -9.53274e-05 -7.54438e-05 0.000154961 0.004 379.104 2.59225 
121 1 1 -0.00514899 -0.0120184 0.0174569 0 0 0 -4.27243e-06 1.51364e-06 3.23673e-06 3.6401e-06 7.47982e-07 1.59851e-06 -0.00010272 -0.000233121 2.54969e-05 0.004 515.13 0.631138 
28 1 1 0.00814308 -0.0139813 0.0183177 0 0 0 -5.80811e-06 1.86417e-06 5.41148e-06 4.06673e-06 4.44692e-07 2.2e-06 9.764e-06 -0.000457716 0.000247861 0.004 631.821 -1.788 
42 1 1 0.0200408 -0.0148104 0.017266 0 0 0 -5.75054e-06 1.12287e-06 4.40927e-06 3.49126e-06 1.09968e-06 1.89676e-06 -8.36976e-05 -6.29785e-05 7.20122e-05 0.004 714.85 -2.71471 
60 1 1 0.0376281 -0.0116471 0.016172 0 0 0 -3.2703e-06 5.00286e-07 3.52495e-06 1.16645e-06 5.7429e-07 -1.31248e-07 -6.80582e-05 -0.000240702 -0.000153677 0.004 777.575 -1.96923 
135 1 1 -0.0452123 -0.008651 0.0176759 0 0 0 -6.66446e-07 5.48972e-07 -2.61281e-07 2.91458e-07 5.26256e-08 -3.45345e-07 -1.49172e-05 -1.73954e-05 2.07399e-05 0.004 315.459 1.61635 