ITEM: TIMESTEP
28800
ITEM: NUMBER OF ATOMS
890
ITEM: BOX BOUNDS mm mm mm
-0.05 0.05
-0.05 0.05
0 0.15
ITEM: ATOMS id type type x y z ix iy iz vx vy vz fx fy fz omegax omegay omegaz radius f_Temp[0] f_heatFlux[0] 
59 1 1 -0.000715552 -0.0460982 0.00395596 0 0 0 -4.62317e-07 5.85135e-07 4.85983e-07 -7.97963e-08 1.09741e-06 8.27854e-07 7.82268e-05 -0.000208555 -8.08654e-05 0.004 529.543 1.84181 
170 1 1 -0.0173498 -0.0426414 0.003973 0 0 0 -6.06976e-08 7.70533e-07 2.42908e-07 4.28194e-07 1.11098e-06 8.77384e-07 0.000158362 8.38896e-07 2.69034e-05 0.004 360.92 6.38608 
15 1 1 -0.00975016 -0.0449638 0.00393396 0 0 0 -7.25427e-07 5.80401e-07 1.04442e-06 -2.5112e-07 1.441e-06 1.57216e-06 -0.000130708 -0.00032084 -6.38805e-05 0.004 400.281 6.50011 
116 1 1 0.00648761 -0.0428197 0.00395867 0 0 0 -4.95571e-07 1.00318e-06 1.40882e-06 1.30437e-07 3.32206e-06 1.90846e-06 1.17874e-05 -2.20645e-05 0.000162985 0.004 635.115 -3.46911 
158 1 1 0.0143627 -0.0437626 0.00389979 0 0 0 -1.00592e-06 1.18675e-06 1.27688e-06 -7.00861e-08 1.99625e-06 1.51378e-06 -0.000123982 -0.000148522 -7.34082e-05 0.004 701.917 -6.21107 
98 1 1 0.0216779 -0.0406527 0.0039426 0 0 0 -6.21734e-07 1.30283e-06 8.81321e-07 5.91087e-07 1.47652e-06 1.40922e-06 -5.49351e-05 8.53887e-05 0.000167955 0.004 748.045 -5.92823 
169 1 1 -0.0244315 -0.0390659 0.00391425 0 0 0 4.88251e-07 1.45427e-06 1.06241e-06 9.96916e-07 1.6572e-06 8.51431e-07 -2.36285e-05 4.60727e-05 -7.44059e-05 0.004 328.507 4.56758 
89 1 1 -0.011812 -0.0369235 0.0039546 0 0 0 6.23109e-07 2.43978e-06 6.49775e-07 8.97586e-07 1.97623e-06 2.13646e-06 -0.000639897 5.6148e-05 -8.0527e-05 0.004 397.628 5.51959 
152 1 1 -0.00418343 -0.0390223 0.0039052 0 0 0 1.90995e-07 1.54237e-06 1.87862e-06 8.11703e-07 2.28754e-06 2.87806e-06 -7.34581e-05 1.53866e-05 -3.50337e-05 0.004 482.044 3.33244 
23 1 1 0.0153483 -0.0358821 0.00391126 0 0 0 -8.17549e-07 2.10386e-06 1.14354e-06 1.52437e-06 3.28869e-06 2.95275e-06 -0.000254119 -7.86063e-05 -0.000150386 0.004 715.465 -6.44265 
118 1 1 -0.0307533 -0.0342397 0.00392724 0 0 0 -2.10008e-08 1.36423e-06 6.8067e-07 9.03777e-07 1.02471e-06 2.6881e-07 -0.000232052 -4.70658e-05 8.98329e-05 0.004 310.178 2.51439 
30 1 1 -0.0188787 -0.0333718 0.00395272 0 0 0 9.76982e-07 3.01522e-06 1.3099e-06 1.92174e-06 3.39461e-06 2.26765e-06 -0.000260852 0.000316686 7.58195e-05 0.004 342.708 4.94568 
215 1 1 -0.00603632 -0.0313238 0.00390657 0 0 0 -3.39642e-07 2.43277e-06 1.8526e-07 2.09569e-06 3.69028e-06 3.94342e-06 -0.000649469 6.867e-05 -0.000141825 0.004 451.189 4.57883 
74 1 1 0.00184139 -0.0338193 0.00390676 0 0 0 -3.08942e-07 2.25415e-06 6.93625e-07 7.64395e-07 3.48248e-06 3.63797e-06 -0.000456468 -7.53349e-06 0.000155159 0.004 559.367 -0.235211 
24 1 1 0.00917855 -0.0308342 0.0039203 0 0 0 -1.18473e-06 2.28849e-06 3.73909e-08 1.97707e-06 4.2816e-06 4.06393e-06 -0.00041326 -9.03949e-05 -9.50395e-05 0.004 664.92 -5.00055 
198 1 1 0.0259423 -0.0339524 0.00395549 0 0 0 -2.19019e-06 3.34166e-06 2.54244e-07 8.52878e-07 2.88235e-06 2.61791e-06 -0.000760604 -0.000507692 7.38885e-05 0.004 775.214 -4.30391 
161 1 1 0.0335301 -0.0316074 0.00391357 0 0 0 -1.0672e-06 1.88854e-06 3.82453e-07 3.92717e-07 2.06444e-06 1.35101e-06 -0.000321724 -5.19871e-05 -0.000230305 0.004 789.268 -2.55642 
8 1 1 -0.0322699 -0.0264156 0.00398403 0 0 0 1.91215e-07 1.69911e-06 8.54071e-07 1.19911e-06 1.84597e-06 1.51928e-06 2.83897e-05 -0.000181047 4.43297e-05 0.004 307.8 2.00593 
12 1 1 -0.0244143 -0.0276959 0.00386435 0 0 0 5.41961e-07 2.79713e-06 1.85587e-06 2.82995e-06 3.98048e-06 2.52697e-06 -0.000320207 0.000205695 0.000148362 0.004 322.003 3.81489 
188 1 1 -0.0131743 -0.0277763 0.00396586 0 0 0 3.54995e-07 4.24758e-06 1.32665e-08 2.2859e-06 3.54666e-06 2.7921e-06 -0.000690426 0.00021228 -6.63868e-05 0.004 360.954 5.72435 
77 1 1 -0.000100268 -0.0260809 0.00389412 0 0 0 -2.43661e-06 2.87007e-06 -2.0849e-06 3.34084e-06 4.99633e-06 3.95898e-06 -0.000676469 -0.000566372 0.000511688 0.004 537.879 0.724712 
113 1 1 0.0165643 -0.0280203 0.00388657 0 0 0 -2.26859e-06 3.54603e-06 -5.35259e-07 1.82099e-06 3.87473e-06 2.9969e-06 -0.000585879 -0.000424878 0.000605897 0.004 730.599 -5.77569 
183 1 1 0.0384541 -0.0253742 0.00393847 0 0 0 -6.64435e-07 9.87377e-07 -1.91819e-07 6.77273e-07 8.62673e-07 7.5183e-07 -7.67835e-05 -5.12742e-05 -1.84405e-05 0.004 795.631 -1.33793 
162 1 1 -0.0396311 -0.023418 0.00390782 0 0 0 6.00648e-07 1.00027e-06 8.71163e-07 2.09775e-07 6.54189e-07 3.46904e-07 -0.000196318 0.00015233 0.000201285 0.004 302.769 0.935235 
53 1 1 -0.027206 -0.0202486 0.00395165 0 0 0 5.81244e-07 2.85777e-06 1.48243e-06 3.08165e-06 3.12362e-06 2.36127e-06 -0.000308533 7.65364e-05 -0.000260602 0.004 312.889 2.75848 
148 1 1 -0.0187585 -0.0220642 0.00393813 0 0 0 -3.22713e-07 4.47324e-06 -5.23065e-07 3.28176e-06 6.24068e-06 3.20609e-06 -0.000765552 -6.85961e-06 0.000198307 0.004 337.378 5.29849 
195 1 1 -0.00727818 -0.0215501 0.00394561 0 0 0 -1.18643e-07 5.28464e-06 -1.19311e-06 2.97192e-07 2.9226e-06 5.45273e-06 -0.000895371 0.000114366 0.000100723 0.004 423.941 6.58741 
179 1 1 0.00736628 -0.0231031 0.0039427 0 0 0 -2.68932e-06 3.30455e-06 -2.55927e-06 1.72328e-06 5.38225e-06 4.22276e-06 -0.000493229 -0.000443321 0.000289537 0.004 665.953 -5.55297 
95 1 1 0.0148506 -0.02031 0.00393207 0 0 0 -2.32953e-06 3.61037e-06 -3.16178e-06 1.44803e-06 4.44231e-06 4.13276e-06 -0.00039255 -0.000105694 -0.000381304 0.004 726.452 -5.83793 
76 1 1 0.0230028 -0.0233057 0.00397471 0 0 0 -3.18724e-06 4.39994e-06 -6.80054e-07 1.47016e-06 5.28643e-06 2.90179e-06 -0.000892756 -0.000483935 -0.000449333 0.004 777.723 -3.81815 
100 1 1 0.0325586 -0.0200896 0.00388594 0 0 0 -1.8711e-06 2.46346e-06 -2.21069e-06 1.50506e-06 3.95963e-06 2.91859e-06 -0.000511179 -0.000422201 -0.000220231 0.004 792.451 -1.91365 
65 1 1 -0.0430742 -0.0162802 0.00393145 0 0 0 4.19912e-07 8.71065e-07 6.65661e-07 3.26098e-07 2.0541e-07 3.16159e-07 -0.000125259 8.39738e-05 5.28608e-07 0.004 301.393 0.539699 
102 1 1 -0.0351583 -0.0155178 0.00394447 0 0 0 1.06716e-08 3.66245e-06 1.87594e-06 1.05036e-06 3.73686e-06 2.08112e-06 -0.00110495 -0.000299437 0.000556738 0.004 304.082 1.2121 
213 1 1 -0.0132588 -0.0162738 0.00397362 0 0 0 -5.03505e-07 5.04176e-06 -2.42513e-06 5.31219e-06 2.97235e-06 3.74542e-06 -0.000365713 2.84431e-05 -8.02663e-05 0.004 360.535 6.575 
10 1 1 0.00114843 -0.0182524 0.00474996 0 0 0 -2.90468e-06 5.00785e-06 -4.10846e-06 1.51123e-06 5.53854e-06 7.66721e-06 0.000476267 -2.6416e-05 -0.000602066 0.004 574.174 -1.3806 
5 1 1 0.00879789 -0.0152554 0.00390311 0 0 0 -1.26388e-06 5.19798e-06 -4.58073e-06 1.68763e-06 4.18088e-06 5.15251e-06 -0.000465841 -0.00010993 -0.000150901 0.004 676.425 -5.22313 
96 1 1 0.0211693 -0.0155243 0.00395648 0 0 0 -2.04125e-06 4.39604e-06 -4.12346e-06 9.99046e-07 3.96702e-06 5.73546e-06 -0.000951368 -0.000274417 0.000419159 0.004 771.643 -4.12253 
167 1 1 0.0421923 -0.0183683 0.00392112 0 0 0 1.02233e-07 7.42905e-07 -7.79195e-07 3.63331e-07 3.70657e-07 2.21274e-07 -0.000106412 3.8453e-06 -0.000107017 0.004 798.652 -0.532873 
124 1 1 -0.029011 -0.0104716 0.00394788 0 0 0 -5.03346e-07 4.3673e-06 7.06093e-07 2.65311e-06 2.68285e-06 2.6942e-06 -0.000551823 -0.000330158 -0.000230416 0.004 311.463 2.49281 
220 1 1 -0.021776 -0.0144544 0.00398041 0 0 0 5.60641e-07 3.80552e-06 1.30114e-07 5.41717e-06 6.98456e-07 3.66872e-06 -0.000558658 -2.26008e-05 0.000413414 0.004 327.655 3.98852 
144 1 1 -0.00535519 -0.0138039 0.00388171 0 0 0 -1.31506e-06 5.54079e-06 -4.92359e-06 1.86705e-06 6.55021e-06 1.19824e-05 -0.00103602 -0.000243126 0.000197181 0.004 485.608 3.03199 
26 1 1 0.0025557 -0.010463 0.00390562 0 0 0 -9.45058e-07 5.61907e-06 -6.83801e-06 2.77922e-06 6.04979e-06 9.11113e-06 -0.00137712 -1.13445e-05 1.82904e-05 0.004 581.123 -1.50403 
194 1 1 0.0287352 -0.0131031 0.00393078 0 0 0 -1.3649e-06 4.12002e-06 -5.29755e-06 2.0024e-06 4.66087e-06 4.59534e-06 -0.000768432 -7.00454e-05 -0.000248642 0.004 789.543 -2.34524 
37 1 1 0.0366701 -0.0122308 0.00393304 0 0 0 -8.66983e-07 2.205e-06 -4.06171e-06 1.31579e-06 3.53502e-06 2.10436e-06 -0.000234733 -0.000273064 -9.88768e-05 0.004 797.399 -0.860823 
219 1 1 0.0447285 -0.0108715 0.00390888 0 0 0 -5.34892e-08 7.39383e-07 -7.97413e-07 2.92089e-07 -6.44642e-07 4.65737e-08 -5.20102e-07 -0.000101945 5.96364e-05 0.004 799.486 -0.249353 
636 1 1 -0.0451998 -0.00864275 0.0039177 0 0 0 8.0278e-07 1.03055e-06 7.26048e-07 1.58072e-06 5.21072e-07 7.10011e-07 -6.41798e-05 0.0001268 -0.000118663 0.004 300.561 0.259834 
39 1 1 -0.0161467 -0.00885111 0.00388983 0 0 0 -6.15511e-07 5.56336e-06 -2.92743e-06 5.21317e-06 4.02336e-06 8.85977e-06 -0.000576294 0.000218038 3.29748e-05 0.004 365.698 5.14299 
171 1 1 -0.00395988 -0.00597834 0.00392039 0 0 0 -1.34319e-06 5.13319e-06 -8.1597e-06 4.52816e-06 7.05448e-06 1.11927e-05 -0.000504315 -0.000188074 -9.15051e-05 0.004 494.302 2.57756 
200 1 1 0.0146298 -0.00986523 0.00396374 0 0 0 -2.33447e-06 7.44271e-06 -5.09235e-06 1.13421e-06 4.75388e-06 6.37676e-06 -0.000921302 -0.000201151 0.000214714 0.004 734.644 -5.82439 
21 1 1 0.022252 -0.00762165 0.00394333 0 0 0 -1.68867e-06 5.86252e-06 -8.47259e-06 3.17079e-07 4.2783e-06 6.76671e-06 -0.00128509 9.51145e-05 -0.000544493 0.004 774.617 -4.03232 
17 1 1 0.0298456 -0.00520719 0.00394873 0 0 0 -1.77163e-06 4.18461e-06 -7.53683e-06 1.36983e-06 3.77457e-06 5.01496e-06 -0.000688819 -0.000378092 0.000198887 0.004 790.215 -2.36439 
477 1 1 -0.0445832 -0.000710822 0.00396284 0 0 0 1.98383e-06 1.54262e-06 1.3115e-06 3.49305e-06 9.33069e-07 1.26395e-06 -0.00012146 0.000340531 6.27306e-05 0.004 300.615 0.259119 
140 1 1 -0.0352672 -0.00371828 0.00387245 0 0 0 2.14081e-06 4.14898e-06 2.37998e-06 3.5055e-06 1.88299e-06 4.05479e-06 -0.000738657 0.00043258 5.55356e-05 0.004 305.642 1.39624 
119 1 1 -0.0273891 -0.00269835 0.00396388 0 0 0 1.20308e-06 5.02212e-06 -1.3923e-06 3.91363e-06 7.82975e-07 5.35237e-06 -0.000660347 0.000210278 -9.01708e-05 0.004 317.496 2.99865 
207 1 1 -0.0194912 -0.00168731 0.00389505 0 0 0 4.47991e-08 6.07405e-06 -3.70976e-06 3.83731e-06 3.10784e-06 1.11631e-05 -0.000936281 0.000174156 0.000165185 0.004 346.503 4.83092 
69 1 1 -0.0111573 -0.00264554 0.00393002 0 0 0 -2.49971e-07 5.82491e-06 -5.45177e-06 3.12944e-06 4.84542e-06 9.32784e-06 -0.000671472 3.84197e-05 -0.000235206 0.004 408.217 5.45702 
221 1 1 0.00874802 -0.00448993 0.00393197 0 0 0 -1.35293e-06 8.23536e-06 -8.63329e-06 3.22927e-06 5.2289e-06 8.49538e-06 -0.00233495 -6.52199e-05 0.000277391 0.004 691.063 -5.79952 
457 1 1 0.0163505 -0.00208062 0.00395926 0 0 0 -2.31211e-06 8.103e-06 -7.89654e-06 1.14226e-06 3.66233e-06 5.98227e-06 -0.000607329 -0.000721033 -0.000229035 0.004 748.28 -5.91092 
155 1 1 0.0378912 -0.00224687 0.00393692 0 0 0 1.40692e-06 1.80531e-06 -5.35504e-06 6.50135e-07 1.72623e-06 3.29729e-06 -0.000370016 0.000705154 9.82377e-05 0.004 797.465 -0.810504 
665 1 1 0.0459183 -0.00307627 0.0039426 0 0 0 8.72207e-07 1.05433e-06 -1.59095e-06 -2.48241e-07 -9.63373e-07 1.46585e-06 -0.000399419 9.96951e-05 -0.000348965 0.004 799.409 -0.269201 
120 1 1 0.00918485 -0.0371092 0.00876931 0 0 0 -7.30884e-07 3.74009e-06 2.55968e-06 2.57764e-06 5.84829e-06 5.01558e-06 -0.000313722 0.000309404 0.000315184 0.004 669.641 -5.39415 
9 1 1 -0.0247147 -0.033359 0.00937621 0 0 0 1.08381e-06 4.10195e-06 2.03285e-06 3.06259e-06 4.24328e-06 2.27274e-06 -0.000252286 -0.000234321 0.000238853 0.004 322.522 4.05114 
101 1 1 -0.0188615 -0.0277192 0.00955144 0 0 0 1.72638e-06 7.56075e-06 1.38674e-06 5.47714e-06 8.53807e-06 3.95856e-06 -0.00059909 0.000270043 0.000234284 0.004 337.741 5.05056 
48 1 1 0.0221998 -0.0293139 0.00920029 0 0 0 -2.96312e-06 6.80455e-06 -2.76148e-07 2.82225e-06 7.09257e-06 4.9797e-06 5.81708e-05 0.000142798 -0.000319029 0.004 763.317 -4.63325 
75 1 1 0.02936 -0.0261745 0.0078742 0 0 0 -2.74847e-06 5.61845e-06 -9.53135e-07 1.98377e-06 5.43593e-06 4.09209e-06 -0.000527222 0.000160605 0.000186263 0.004 786.372 -2.76527 
46 1 1 -0.0327913 -0.0205809 0.00958345 0 0 0 2.22749e-06 5.3916e-06 5.28371e-06 4.85124e-06 4.47255e-06 4.63049e-06 0.000473581 0.000878266 -0.000485223 0.004 307.955 1.95249 
33 1 1 -0.013034 -0.0220249 0.00949565 0 0 0 4.59282e-07 1.01284e-05 -2.42884e-06 3.11469e-06 4.48976e-06 7.02331e-06 -0.000687866 0.000463334 0.000294023 0.004 367.813 5.64161 
11 1 1 0.02689 -0.0187448 0.00924459 0 0 0 -3.24529e-06 8.44031e-06 -5.38904e-06 2.79098e-06 6.69608e-06 6.79832e-06 -0.00085382 -6.05796e-05 -0.00038452 0.004 783.437 -3.1068 
71 1 1 -0.0372752 -0.00954697 0.00876622 0 0 0 1.9666e-06 4.03432e-06 2.45493e-06 3.48599e-07 2.45355e-06 1.40666e-06 0.00116793 0.0005075 -0.000860802 0.004 302.81 0.882891 
62 1 1 -0.0228082 -0.00771375 0.00814031 0 0 0 1.12548e-06 8.33432e-06 -1.40086e-06 5.73487e-06 2.34755e-06 9.80763e-06 -0.000451861 0.000695457 6.42577e-05 0.004 329.017 4.06681 
19 1 1 -0.0097068 -0.00905643 0.00849057 0 0 0 -1.4815e-06 1.03278e-05 -8.86925e-06 7.74792e-06 1.24489e-05 1.88306e-05 -0.00072315 0.000506474 -4.88479e-05 0.004 443.618 3.9826 
187 1 1 0.00796705 -0.00988213 0.00975747 0 0 0 -8.74895e-06 1.0348e-05 -5.90314e-06 4.12759e-06 5.71354e-06 8.22201e-06 0.000893081 -0.00251827 0.00104335 0.004 682.128 -7.27784 
157 1 1 0.0395817 -0.0075195 0.00963112 0 0 0 1.08885e-06 4.28623e-06 -6.65881e-06 3.69444e-06 1.75693e-06 2.867e-06 -0.000707973 -0.000100749 -0.000900292 0.004 798.733 -0.496216 
18 1 1 0.00229105 -0.00404911 0.00852633 0 0 0 -1.50713e-06 1.2127e-05 -1.70161e-05 8.09613e-06 1.00536e-05 1.8979e-05 -0.000945197 -0.000817952 -0.000189063 0.004 577.884 -1.30156 
185 1 1 -0.00531149 -0.045735 0.0104438 0 0 0 6.01064e-07 1.67566e-06 1.09289e-06 2.41732e-06 2.13439e-06 1.56331e-06 1.50426e-05 0.000925303 0.000234881 0.004 470.798 3.6847 
83 1 1 0.00256735 -0.0459474 0.0112661 0 0 0 3.26636e-07 3.07008e-06 4.31263e-06 2.00885e-06 2.339e-06 2.5949e-06 0.0011654 -0.00154765 5.46115e-05 0.004 573.992 -2.22399 
58 1 1 -0.0218568 -0.0405822 0.0112769 0 0 0 1.16175e-06 2.90867e-06 8.87639e-07 2.78523e-06 2.50924e-06 1.95283e-07 -4.29612e-05 0.000169593 0.000176357 0.004 332.078 4.996 
105 1 1 -0.013586 -0.043966 0.0108787 0 0 0 -2.73762e-06 3.08398e-06 3.57373e-07 9.30666e-07 1.1034e-06 2.53991e-06 -0.000369631 -0.000833563 0.000804956 0.004 366.968 7.49014 
223 1 1 0.0103957 -0.0448674 0.0106706 0 0 0 -6.2046e-08 2.7135e-06 5.37466e-06 1.2678e-06 2.7664e-06 4.11839e-06 0.000457703 0.00116048 -0.000185841 0.004 661.368 -5.57893 
217 1 1 0.0179432 -0.0424254 0.0108281 0 0 0 -4.76508e-07 3.38123e-06 8.32658e-07 2.09958e-07 2.78673e-06 1.93709e-06 -0.000504837 0.000282008 -1.19529e-05 0.004 722.674 -6.35275 
6 1 1 -0.0162615 -0.0350312 0.0113114 0 0 0 1.12592e-06 5.06741e-06 2.36246e-06 3.75302e-06 6.29214e-06 4.16062e-06 -1.75135e-05 -0.000613566 -0.00011743 0.004 358.632 5.81207 
151 1 1 -0.00801309 -0.0382603 0.0108114 0 0 0 -3.46121e-08 4.90345e-06 2.65976e-06 2.75874e-06 4.78654e-06 4.92341e-06 -0.000162503 -0.00034105 -0.000848792 0.004 428.125 5.4932 
2 1 1 0.000443906 -0.038308 0.0102709 0 0 0 7.28099e-07 5.98888e-06 4.23313e-06 1.72416e-06 4.79038e-06 5.11772e-06 -0.00117479 2.69362e-05 -8.76221e-05 0.004 548.079 0.174547 
117 1 1 0.0249196 -0.0387267 0.0109176 0 0 0 -8.95164e-07 3.4236e-06 9.01538e-07 1.9722e-07 3.86224e-06 2.41505e-06 -7.61198e-05 -0.000165988 2.15657e-05 0.004 764.42 -4.97304 
13 1 1 -0.0323455 -0.0327547 0.011537 0 0 0 1.24686e-06 2.91807e-06 2.08563e-06 1.47162e-06 1.94278e-06 8.21006e-08 0.000137455 0.000386044 -0.000155387 0.004 310.213 2.50154 
193 1 1 -0.00982583 -0.0305006 0.0107684 0 0 0 -5.54056e-07 7.78877e-06 8.00904e-07 5.85065e-06 7.55191e-06 1.01201e-05 -0.00110461 0.000187194 0.00112769 0.004 417.655 5.69235 
47 1 1 -0.00133761 -0.0305434 0.0103847 0 0 0 -1.95316e-06 6.02551e-06 -7.26917e-07 5.53228e-06 8.84987e-06 7.37197e-06 -0.000400406 2.79764e-05 0.000771302 0.004 529.949 1.33752 
153 1 1 0.00656459 -0.0300232 0.0113661 0 0 0 -2.73817e-06 9.08843e-06 -5.32423e-07 4.99627e-06 8.4366e-06 8.25532e-06 -0.00112313 -0.000329884 -0.000390364 0.004 634.707 -3.9377 
41 1 1 0.0148076 -0.0317915 0.010654 0 0 0 -2.97926e-06 7.79444e-06 -1.48343e-07 3.57042e-06 7.95555e-06 6.59283e-06 -0.000927818 -0.000311546 0.000511014 0.004 720.534 -6.29558 
163 1 1 0.0311565 -0.0339183 0.0111114 0 0 0 -1.20875e-06 3.95933e-06 1.14276e-06 3.98949e-07 3.72565e-06 3.05364e-06 -0.000161301 9.24301e-05 -0.000152996 0.004 786.082 -2.875 
214 1 1 -0.0375015 -0.0268266 0.010714 0 0 0 1.24818e-06 3.30843e-06 3.40023e-06 1.55799e-06 2.01416e-06 2.99148e-07 -3.62362e-06 -0.000771351 0.000521984 0.004 305.252 1.50453 
210 1 1 0.0364694 -0.0280972 0.0111134 0 0 0 -9.79381e-07 3.16981e-06 -2.8224e-07 1.11185e-06 1.65574e-06 1.3444e-06 -0.000362954 2.82167e-05 -0.000212743 0.004 794.894 -1.43018 
108 1 1 -0.0260916 -0.0246405 0.0109304 0 0 0 1.94293e-06 7.34829e-06 3.81699e-06 5.97719e-06 9.11767e-06 2.4524e-06 -0.000752861 0.000232712 0.00046094 0.004 318.71 3.37334 
40 1 1 -0.00551117 -0.0238697 0.0113284 0 0 0 -1.8271e-06 9.88982e-06 -3.15572e-06 5.0631e-06 9.10761e-06 1.03567e-05 -0.000193581 -0.000171342 -0.000873893 0.004 467.544 3.8038 
55 1 1 0.00236204 -0.0232852 0.0108247 0 0 0 -3.05626e-06 9.74932e-06 -6.1139e-06 4.5811e-06 1.03712e-05 1.09511e-05 -0.00109267 0.000899554 0.000644722 0.004 586.942 -1.63494 
91 1 1 0.0120918 -0.0243838 0.0101855 0 0 0 -3.85445e-06 7.68593e-06 -3.98385e-06 4.24339e-06 1.02889e-05 9.27339e-06 -0.000575176 0.000260094 -0.000114859 0.004 701.142 -6.25736 
112 1 1 0.0192794 -0.0205361 0.0105072 0 0 0 -2.97147e-06 1.04374e-05 -5.9414e-06 3.59271e-06 1.01045e-05 8.6891e-06 -0.000996118 -0.000276906 0.000431194 0.004 752.402 -5.61362 
178 1 1 0.0318658 -0.0225254 0.0144788 0 0 0 -2.73411e-06 1.08682e-05 -4.49688e-06 5.14654e-06 4.83194e-06 3.93077e-06 -0.000833968 -0.000268107 4.60278e-05 0.004 792.907 -1.80843 
131 1 1 0.0407765 -0.0214683 0.0110513 0 0 0 -7.16158e-07 2.47857e-06 -1.79873e-06 8.15638e-07 1.23365e-06 1.2843e-06 -0.000253702 -0.000251221 -0.000259123 0.004 797.806 -0.765687 
160 1 1 -0.0414721 -0.0199398 0.0108131 0 0 0 1.82922e-06 2.07506e-06 1.70475e-06 8.23622e-07 1.27696e-06 5.59172e-07 -0.00016354 0.000352134 -0.000169673 0.004 301.848 0.676461 
43 1 1 -0.0361087 -0.0151005 0.0142597 0 0 0 3.86677e-06 7.43443e-06 4.80527e-06 3.03284e-06 5.694e-06 3.13023e-06 -0.00203435 -0.000144305 0.00132419 0.004 304.716 1.25602 
4 1 1 -0.0270343 -0.0151184 0.0100739 0 0 0 9.04983e-07 7.62645e-06 2.45091e-06 5.61462e-06 8.83381e-06 7.74594e-06 -0.000380911 0.000327176 0.000957836 0.004 315.813 3.02989 
104 1 1 -0.020301 -0.0192303 0.0111976 0 0 0 1.33041e-06 1.11323e-05 2.94094e-07 7.36205e-06 1.278e-05 9.1419e-06 -0.000484701 0.000502773 -3.8717e-05 0.004 336.197 4.67424 
20 1 1 -0.00745486 -0.0162219 0.0110954 0 0 0 -5.08522e-07 1.22611e-05 -5.98163e-06 5.78678e-06 1.23162e-05 1.95083e-05 -0.000922347 0.000200375 0.000336524 0.004 460.073 3.90401 
45 1 1 0.000824975 -0.0164514 0.0146045 0 0 0 -2.8585e-06 1.78195e-05 -1.35486e-05 9.80723e-06 1.34077e-05 2.11665e-05 -0.00133243 0.000253879 -0.000470121 0.004 561.344 -0.461264 
159 1 1 0.00795154 -0.0177077 0.0113469 0 0 0 -4.19548e-06 1.07096e-05 -1.0748e-05 5.78114e-06 1.18166e-05 1.39321e-05 -0.000823911 -0.000432411 -0.000187808 0.004 667.633 -5.01665 
136 1 1 0.0347931 -0.0163371 0.0104655 0 0 0 -1.63273e-06 6.72669e-06 -7.09961e-06 1.60004e-06 5.14694e-06 4.27247e-06 -0.00104055 4.01022e-05 -0.000443509 0.004 795.386 -1.33598 
177 1 1 -0.0443274 -0.0125289 0.0108104 0 0 0 1.09439e-06 2.17626e-06 1.11888e-06 3.82496e-07 1.11357e-06 7.06751e-07 -3.41735e-05 -0.000112129 0.000392914 0.004 301.117 0.44204 
139 1 1 -0.016821 -0.0121093 0.0110437 0 0 0 6.77817e-07 1.17279e-05 -3.3423e-06 9.20251e-06 1.38615e-05 1.71227e-05 -0.000712858 0.000105449 -3.63663e-05 0.004 357.451 5.11076 
211 1 1 -0.00209547 -0.0104149 0.0103073 0 0 0 -2.46043e-06 1.38928e-05 -1.3646e-05 8.95669e-06 1.11587e-05 1.99532e-05 -0.00101263 9.20533e-05 0.00027957 0.004 522.145 1.19251 
54 1 1 0.0149154 -0.0138958 0.0108308 0 0 0 -4.69529e-06 1.20075e-05 -1.00019e-05 4.23079e-06 1.04108e-05 1.14237e-05 0.000239408 -0.000291682 0.000153004 0.004 735.568 -6.13331 
84 1 1 0.023272 -0.011801 0.0106601 0 0 0 -3.80383e-06 1.26834e-05 -1.26148e-05 3.36634e-06 8.4984e-06 1.24125e-05 -0.000954151 -0.000312409 -0.000311924 0.004 777.393 -3.89481 
180 1 1 0.0438204 -0.0140997 0.0110465 0 0 0 -2.53387e-07 1.73149e-06 -2.15768e-06 1.09024e-06 -2.88557e-07 1.5125e-06 -0.00015348 -0.00013094 0.00012504 0.004 799.241 -0.33571 
103 1 1 0.0174441 -0.00636566 0.0105706 0 0 0 -3.74601e-06 1.53418e-05 -1.51679e-05 3.04733e-06 8.39369e-06 1.56871e-05 -0.00077574 0.000394456 -0.000324883 0.004 752.173 -5.63846 
156 1 1 0.0308891 -0.00946115 0.0106299 0 0 0 -3.08531e-06 9.49196e-06 -1.20599e-05 1.26452e-06 6.36456e-06 8.32839e-06 -0.000319323 -0.000448064 0.000238817 0.004 790.78 -2.19414 
197 1 1 -0.0457831 -0.0047112 0.0107571 0 0 0 2.502e-06 2.09025e-06 1.79779e-06 3.2062e-06 8.16499e-07 2.40001e-06 1.89646e-05 1.05949e-05 -0.000252108 0.004 300.633 0.277972 
87 1 1 -0.038606 -0.00381154 0.014138 0 0 0 6.86752e-06 6.94757e-06 3.61816e-06 6.05063e-06 3.47239e-06 6.64347e-06 -0.00144104 2.12054e-05 0.000254035 0.004 301.876 0.637114 
130 1 1 -0.0313597 -0.00387387 0.0107774 0 0 0 8.84979e-06 9.88218e-06 7.26274e-07 3.31417e-06 6.19955e-06 8.96627e-06 -0.000270628 0.00128472 0.00111082 0.004 307.467 1.75382 
604 1 1 -0.0224596 -0.000300913 0.0110794 0 0 0 3.87591e-06 1.49407e-05 -5.77864e-06 9.96688e-06 9.46549e-06 2.08756e-05 -0.00154969 0.00101721 -4.63738e-06 0.004 337.208 4.20546 
146 1 1 -0.0155079 -0.00400734 0.0103911 0 0 0 1.25809e-06 1.33329e-05 -7.625e-06 9.434e-06 1.28218e-05 2.15011e-05 -0.00055157 0.000573901 -0.000292792 0.004 380.979 5.04522 
57 1 1 -0.0051753 -0.00310613 0.0111952 0 0 0 -1.06505e-06 1.67307e-05 -2.02814e-05 9.1173e-06 1.1427e-05 2.50777e-05 -0.00243429 0.000973086 0.000115585 0.004 493.353 2.62191 
493 1 1 0.0116956 -0.000875078 0.0103665 0 0 0 -1.63127e-06 2.02866e-05 -1.90237e-05 4.32463e-06 6.54825e-06 1.79164e-05 0.000107055 -0.000606507 -0.000352318 0.004 711.893 -6.26079 
31 1 1 0.0250484 -0.0040542 0.01046 0 0 0 -1.68886e-06 1.18872e-05 -1.68897e-05 1.63514e-06 8.26903e-06 1.20825e-05 -0.000416557 -0.000774218 -0.000493494 0.004 778.151 -3.73304 
588 1 1 0.0325998 -0.00174527 0.010543 0 0 0 -1.03287e-06 8.10934e-06 -1.40921e-05 -3.03901e-07 6.20646e-06 9.82208e-06 -0.000772142 0.000251977 -0.000785623 0.004 790.664 -2.1463 
63 1 1 0.045924 -0.0032788 0.0119253 0 0 0 4.46979e-07 1.95733e-06 -3.69322e-06 1.1602e-06 -6.65516e-07 1.39286e-06 0.000235133 -0.000693714 2.81472e-05 0.004 799.157 -0.345185 
107 1 1 -0.00850636 -0.0452731 0.017677 0 0 0 2.74187e-06 3.84561e-06 1.5321e-06 3.19904e-06 2.08824e-06 2.4866e-06 -0.000341794 -0.00109431 -0.00030499 0.004 450.22 4.53174 
222 1 1 -0.00141963 -0.0418101 0.0171129 0 0 0 2.93705e-06 8.94098e-06 7.20587e-06 3.287e-06 5.77512e-06 6.9593e-06 0.000550259 -2.7094e-05 0.00117111 0.004 535.897 0.910279 
142 1 1 0.00615861 -0.0401388 0.0154211 0 0 0 1.21203e-06 1.036e-05 7.19984e-06 3.00683e-06 7.01267e-06 7.21403e-06 -0.00155194 0.000106016 -0.000455742 0.004 620.791 -3.41751 
172 1 1 0.0116013 -0.0446446 0.0189547 0 0 0 2.13948e-06 8.35845e-06 5.22965e-06 1.9662e-06 5.19546e-06 5.11718e-06 0.000167665 0.00216558 -0.00082639 0.004 674.986 -5.94861 
109 1 1 0.0204197 -0.0412797 0.0183141 0 0 0 -1.67723e-06 5.03081e-06 1.4668e-06 2.28841e-06 4.01666e-06 6.16992e-07 0.000885345 -0.00141039 0.000181017 0.004 752.778 -5.99076 
150 1 1 -0.0273271 -0.0370832 0.0158763 0 0 0 1.75507e-06 3.09697e-06 1.07037e-06 1.89479e-06 2.12739e-06 -1.12182e-07 1.10096e-05 0.000171735 0.000206052 0.004 319.796 3.73202 
38 1 1 -0.0197788 -0.037372 0.0182823 0 0 0 2.37205e-06 7.46027e-06 3.90041e-06 3.61304e-06 5.20956e-06 1.74881e-06 -0.000150977 -0.000831445 0.000126233 0.004 345.375 5.45235 
199 1 1 -0.0118545 -0.0370266 0.0176499 0 0 0 3.29002e-06 1.06436e-05 3.33598e-06 4.75291e-06 5.88404e-06 4.92279e-06 -0.000854155 0.00138491 0.000566959 0.004 383.25 6.2735 
93 1 1 0.0137643 -0.037776 0.0156807 0 0 0 1.99159e-08 9.6579e-06 2.22847e-06 3.47049e-06 6.99189e-06 6.77142e-06 -0.000244047 0.000624109 -0.00014722 0.004 702.391 -6.25728 
64 1 1 0.0280176 -0.0365092 0.0179285 0 0 0 -1.22659e-06 4.71246e-06 7.17105e-07 4.24771e-06 5.93328e-06 5.82189e-06 0.000294414 -8.2655e-05 -0.000148511 0.004 784.455 -3.38725 
22 1 1 -0.0327403 -0.0324221 0.0194567 0 0 0 2.40442e-06 5.40094e-06 3.04481e-06 1.96114e-06 2.72863e-06 -3.52985e-07 -9.15789e-05 -0.000467222 0.000520156 0.004 309.356 2.28719 
174 1 1 -0.0224319 -0.0302106 0.0162617 0 0 0 2.65342e-06 9.93978e-06 3.33375e-06 6.07122e-06 8.78793e-06 2.88669e-06 -6.72941e-05 0.000643307 -6.15811e-05 0.004 333.066 4.83103 
32 1 1 -0.00428314 -0.0343968 0.0166774 0 0 0 1.97765e-07 1.15282e-05 2.54435e-06 6.03901e-06 9.55058e-06 8.74429e-06 -0.00212127 -0.000346981 -0.000309497 0.004 492.479 3.19579 
128 1 1 0.00347455 -0.0331321 0.0179958 0 0 0 -6.66273e-08 1.73833e-05 3.49688e-06 6.93311e-06 1.10495e-05 9.61933e-06 -0.00100982 0.000583208 0.000730415 0.004 584.112 -1.50126 
88 1 1 0.0113687 -0.0304835 0.0177098 0 0 0 -2.58988e-06 1.65118e-05 -4.16861e-07 6.63009e-06 1.11044e-05 1.21227e-05 -0.00135679 0.000850941 0.000610488 0.004 696.593 -5.93877 
137 1 1 0.0208046 -0.0338186 0.0156333 0 0 0 -3.4312e-06 8.18479e-06 3.89082e-07 2.74863e-06 6.8768e-06 3.89455e-06 -0.000845271 -0.000198293 0.000461373 0.004 765.738 -5.48616 
154 1 1 0.033982 -0.0311387 0.0180551 0 0 0 -1.199e-06 6.03227e-06 8.97501e-07 1.81784e-06 2.38862e-06 2.92241e-06 -0.000217709 0.000183305 -0.000929774 0.004 793.322 -1.69488 
52 1 1 -0.031991 -0.0252344 0.0161625 0 0 0 3.20173e-06 8.18794e-06 7.55216e-06 3.92701e-06 5.1706e-06 1.03794e-07 0.000115295 0.000501579 0.00010519 0.004 309.446 2.1387 
80 1 1 -0.00960105 -0.0265067 0.0175804 0 0 0 -1.00829e-06 1.81698e-05 -1.64244e-06 9.39291e-06 1.18634e-05 1.40994e-05 -0.00133822 0.000537095 0.000300282 0.004 421.414 5.32902 
125 1 1 -0.00117369 -0.0267002 0.0173741 0 0 0 -2.13001e-06 1.81413e-05 -3.57135e-06 9.91538e-06 1.418e-05 1.18568e-05 -0.00276469 0.000833008 -1.66715e-05 0.004 529.526 1.65358 
72 1 1 0.0179272 -0.0264317 0.0156369 0 0 0 -3.54378e-06 1.27756e-05 -4.69599e-06 5.54581e-06 1.13453e-05 1.21271e-05 -0.000449542 3.65523e-05 -0.000789248 0.004 747.145 -6.06533 
34 1 1 0.0269647 -0.0287252 0.0154181 0 0 0 -2.25398e-06 1.05202e-05 -7.19856e-07 3.31511e-06 8.58856e-06 7.82796e-06 -0.0010699 -5.10008e-05 0.00013787 0.004 783.929 -2.96861 
218 1 1 -0.0395968 -0.0234663 0.0176916 0 0 0 2.47834e-06 5.14238e-06 4.90534e-06 1.60654e-06 1.92177e-06 2.54943e-07 -0.000448166 -0.000755552 0.000643388 0.004 302.835 0.899622 
70 1 1 -0.0247176 -0.0230259 0.0185785 0 0 0 4.53986e-06 1.37323e-05 5.53899e-06 5.34991e-06 1.10431e-05 3.51205e-06 -0.000537804 0.000729875 0.000305565 0.004 324.353 3.63635 
132 1 1 -0.0171324 -0.0242635 0.0164743 0 0 0 2.36468e-06 1.39429e-05 1.64141e-06 7.41752e-06 1.2335e-05 8.35411e-06 6.37453e-05 0.000248751 -2.52185e-05 0.004 354.453 5.26326 
196 1 1 0.00716646 -0.0237891 0.01706 0 0 0 -2.979e-06 2.0503e-05 -9.09696e-06 6.023e-06 1.52512e-05 1.71856e-05 -0.00254634 -0.000736867 -0.00137315 0.004 660.544 -4.56405 
362 1 1 0.0243873 -0.0214293 0.0170616 0 0 0 -4.96243e-06 1.84665e-05 -1.06131e-05 9.20478e-06 1.04918e-05 1.51813e-05 -0.001237 -0.00153983 -0.000563622 0.004 783.75 -3.10866 
49 1 1 0.0387627 -0.0248027 0.0179814 0 0 0 -1.03503e-06 4.08879e-06 -1.63868e-06 2.6463e-06 -7.81317e-08 1.91949e-06 -0.00023208 -4.66958e-05 0.000221822 0.004 797.196 -0.928548 
173 1 1 -0.0431191 -0.0163148 0.0177078 0 0 0 2.24783e-06 4.19803e-06 2.70268e-06 1.43896e-06 2.43585e-06 8.2168e-07 -0.00043833 -0.000577821 0.000703419 0.004 302.069 0.674968 
50 1 1 -0.0295065 -0.016766 0.018281 0 0 0 6.58342e-06 1.495e-05 7.06791e-06 4.35962e-06 1.31499e-05 7.90346e-06 -6.12082e-06 0.000514776 -0.000595184 0.004 312.371 2.32832 
202 1 1 -0.0134619 -0.0172168 0.0161105 0 0 0 2.38181e-06 1.65826e-05 -2.09892e-06 8.29342e-06 1.80815e-05 2.23945e-05 -0.00141012 0.000794075 0.000629598 0.004 389.041 5.39117 
86 1 1 -0.00524874 -0.0199158 0.0183756 0 0 0 -9.9903e-07 2.27082e-05 -9.61892e-06 1.01695e-05 1.4002e-05 2.26353e-05 -0.000235711 0.000866112 -0.000215037 0.004 485.142 3.43996 
129 1 1 0.0138596 -0.0196296 0.0162859 0 0 0 -3.38422e-06 1.65413e-05 -1.19699e-05 7.90144e-06 1.36517e-05 1.55135e-05 -0.00185301 0.000164249 0.000672537 0.004 722.335 -5.69007 
82 1 1 0.0291401 -0.0151359 0.0159324 0 0 0 -2.24322e-06 1.68437e-05 -1.30979e-05 4.9198e-06 5.50249e-06 1.03511e-05 -0.00202614 -0.000249257 0.000189209 0.004 790.956 -2.15057 
1 1 1 0.0424682 -0.0178049 0.0178803 0 0 0 -1.48718e-07 2.85324e-06 -2.91905e-06 1.89686e-06 -1.56577e-06 2.93427e-06 -0.000199033 -0.000253454 -0.00047924 0.004 798.558 -0.548138 
168 1 1 -0.0224799 -0.0136305 0.0164168 0 0 0 4.67355e-06 1.64477e-05 7.10528e-07 6.86068e-06 1.5936e-05 1.65975e-05 -0.000711287 0.000922244 0.000689379 0.004 332.677 4.21501 
121 1 1 -0.00514907 -0.0120185 0.0174567 0 0 0 1.02467e-07 2.35133e-05 -1.65522e-05 1.03268e-05 1.42037e-05 2.7186e-05 -0.00175672 0.000781996 0.000110463 0.004 498.232 2.35864 
28 1 1 0.00814301 -0.0139814 0.0183175 0 0 0 -6.72059e-06 2.75089e-05 -2.35767e-05 8.41021e-06 1.5666e-05 2.64978e-05 -0.00308827 -0.000423734 -0.000153045 0.004 676.047 -5.94474 
42 1 1 0.0200408 -0.0148105 0.0172659 0 0 0 -5.97112e-06 2.15298e-05 -1.96267e-05 1.15003e-05 1.39635e-05 2.22447e-05 -0.00111385 -0.000339279 0.000229461 0.004 764.642 -4.54339 
60 1 1 0.037628 -0.0116471 0.0161719 0 0 0 -3.79355e-06 8.97713e-06 -1.21e-05 5.66125e-06 1.51564e-06 5.1722e-06 -0.0001365 -0.00112519 0.000277835 0.004 797.989 -0.696829 
135 1 1 -0.0452123 -0.00865101 0.0176759 0 0 0 3.20514e-06 2.87471e-06 1.23446e-06 2.13015e-06 1.11982e-06 1.32741e-06 7.67546e-05 0.000768478 -0.000343707 0.004 300.889 0.360528 