ITEM: TIMESTEP
32800
ITEM: NUMBER OF ATOMS
890
ITEM: BOX BOUNDS mm mm mm
-0.05 0.05
-0.05 0.05
0 0.15
ITEM: ATOMS id type type x y z ix iy iz vx vy vz fx fy fz omegax omegay omegaz radius f_Temp[0] f_heatFlux[0] 
59 1 1 -0.000715547 -0.0460982 0.00395597 0 0 0 -6.43627e-07 -1.3972e-06 -3.22289e-06 4.6931e-07 -2.44214e-07 5.32822e-07 -0.000503779 -0.000424935 0.000547485 0.004 534.881 0.717223 
170 1 1 -0.0173498 -0.0426414 0.00397301 0 0 0 -9.09942e-07 -1.91113e-06 -2.32505e-06 8.0039e-07 -7.93436e-07 3.10321e-08 -3.24672e-05 7.44446e-05 -0.0001114 0.004 387.36 4.9935 
15 1 1 -0.00975016 -0.0449638 0.00393396 0 0 0 -8.33767e-07 -3.80274e-06 -3.20147e-06 7.68068e-07 -4.07832e-07 5.92585e-08 0.00084626 9.60483e-05 -0.000413095 0.004 425.636 4.55289 
116 1 1 0.00648761 -0.0428197 0.00395868 0 0 0 8.64313e-07 -2.77149e-06 -4.91285e-06 -5.56735e-07 -1.9592e-08 1.47737e-06 -0.00037148 0.000363108 -0.000947929 0.004 621.45 -2.44746 
158 1 1 0.0143627 -0.0437626 0.0038998 0 0 0 1.87512e-06 -3.2669e-06 -4.46853e-06 -9.29893e-07 1.23355e-06 1.82085e-06 0.000257582 0.000258439 0.000323181 0.004 678.33 -4.12599 
98 1 1 0.0216779 -0.0406527 0.0039426 0 0 0 1.01549e-06 -1.20466e-06 -3.00146e-06 -1.07477e-06 7.93307e-07 1.2035e-06 -0.000142779 -0.000184098 5.51599e-05 0.004 723.711 -4.55849 
169 1 1 -0.0244315 -0.0390659 0.00391427 0 0 0 -1.78499e-06 -2.54187e-06 -2.22347e-06 4.36843e-07 -9.59374e-07 1.4256e-06 0.000170943 -3.17587e-05 3.06841e-05 0.004 349.482 4.32699 
89 1 1 -0.011812 -0.0369235 0.00395462 0 0 0 -1.11091e-06 -2.98745e-06 -5.20132e-06 8.81439e-08 -9.98423e-07 9.93862e-07 0.000687294 0.000527703 0.000228875 0.004 419.275 3.92927 
152 1 1 -0.00418342 -0.0390223 0.00390523 0 0 0 -8.01297e-07 -3.90899e-06 -8.86886e-06 5.68347e-07 4.85876e-07 1.84698e-06 0.000135504 -4.53982e-05 -0.000354946 0.004 493.916 1.97543 
23 1 1 0.0153483 -0.0358821 0.00391127 0 0 0 1.83997e-06 -3.47409e-06 -8.12816e-06 -2.18002e-06 1.333e-06 2.30373e-06 -0.000212242 -0.000156615 -2.85803e-05 0.004 690.909 -4.31812 
118 1 1 -0.0307533 -0.0342397 0.00392725 0 0 0 -2.02104e-06 -1.08361e-06 -7.75378e-07 -5.20671e-07 -5.52011e-07 1.32815e-06 9.1911e-05 -0.000393424 0.000114925 0.004 323.916 3.24166 
30 1 1 -0.0188787 -0.0333717 0.00395275 0 0 0 -3.33893e-06 -5.00483e-06 -4.3397e-06 -4.97227e-07 -2.89722e-06 1.67479e-06 0.000294954 -0.000511102 0.000151343 0.004 364.243 4.26658 
215 1 1 -0.0060363 -0.0313238 0.0039066 0 0 0 -1.15971e-06 -6.60161e-06 -8.42574e-06 -8.04243e-07 7.28325e-07 1.57547e-06 0.000962986 -8.6352e-05 0.000876973 0.004 467.66 2.76786 
74 1 1 0.00184141 -0.0338192 0.00390678 0 0 0 4.69014e-07 -4.8527e-06 -9.8812e-06 -2.03397e-06 2.45279e-06 3.14504e-06 0.000609554 3.70018e-05 0.000230946 0.004 558.457 -0.184171 
24 1 1 0.00917858 -0.0308342 0.00392033 0 0 0 1.39077e-06 -4.04276e-06 -1.01276e-05 -3.26698e-06 1.53447e-06 2.34348e-06 0.000701577 -0.000264987 0.000105401 0.004 646.665 -3.10803 
198 1 1 0.0259423 -0.0339524 0.0039555 0 0 0 2.95067e-06 -7.6727e-07 -4.34819e-06 -4.27767e-06 1.66448e-06 2.06456e-07 -0.000450804 3.38631e-05 -0.000572562 0.004 755.494 -4.05121 
161 1 1 0.0335301 -0.0316074 0.00391357 0 0 0 2.41205e-06 -1.39964e-06 -2.88361e-06 -1.8754e-06 -1.81685e-07 1.18977e-06 2.68581e-05 3.57555e-05 0.000138789 0.004 775.882 -3.06068 
8 1 1 -0.0322699 -0.0264156 0.00398405 0 0 0 -1.28632e-06 -1.61964e-06 -1.76571e-06 -1.15928e-06 -1.85478e-06 1.37417e-07 -3.50041e-05 0.000640327 -0.000500403 0.004 319.07 2.7251 
12 1 1 -0.0244143 -0.0276959 0.00386439 0 0 0 -3.69014e-06 -5.55623e-06 -4.73377e-06 -2.06739e-06 -4.22784e-06 1.8551e-06 0.000833154 -0.000598989 -0.00042128 0.004 339.99 3.79759 
188 1 1 -0.0131742 -0.0277762 0.00396588 0 0 0 -3.10712e-06 -6.69763e-06 -5.11684e-06 -2.66344e-06 -2.79837e-06 1.61189e-06 0.000621131 -0.000452659 -0.000389629 0.004 384.525 4.44389 
77 1 1 -0.000100221 -0.0260809 0.00389416 0 0 0 -4.20407e-06 -6.52601e-06 -8.85345e-06 -4.00748e-06 3.52808e-06 1.85187e-06 0.000696719 -0.000480629 -9.67978e-05 0.004 540.374 0.391356 
113 1 1 0.0165644 -0.0280203 0.00388658 0 0 0 2.92805e-06 -3.31685e-06 -7.76908e-06 -5.31265e-06 2.30923e-06 1.98995e-06 0.000515312 0.000231655 -0.000105209 0.004 707.896 -4.12691 
183 1 1 0.0384541 -0.0253742 0.00393846 0 0 0 2.71227e-06 -1.0688e-06 -3.00862e-06 -1.81755e-06 -4.03777e-07 1.15398e-06 -0.000114554 -0.000237577 -0.000177011 0.004 787.529 -2.06511 
162 1 1 -0.0396311 -0.023418 0.00390783 0 0 0 -7.15405e-08 8.02114e-08 6.16593e-07 1.43251e-06 1.71902e-07 1.48363e-06 1.4961e-05 -7.46926e-05 -2.03043e-05 0.004 308.936 1.67032 
53 1 1 -0.027206 -0.0202486 0.00395168 0 0 0 -8.36414e-07 -5.34287e-06 -1.65428e-06 5.04291e-06 -7.98808e-06 3.45377e-06 0.000825881 -0.000330527 -0.000268807 0.004 326.996 3.1756 
148 1 1 -0.0187584 -0.0220642 0.00393816 0 0 0 -4.41365e-06 -8.29424e-06 -3.88462e-06 -4.59946e-06 -4.69426e-06 2.76992e-06 0.00139066 -0.000493295 0.000419778 0.004 360.435 4.52745 
195 1 1 -0.00727814 -0.02155 0.00394566 0 0 0 1.044e-06 -3.81022e-06 -8.57311e-06 -2.97574e-06 -4.37226e-07 1.93776e-06 0.000797724 0.000954429 0.00123904 0.004 447.56 3.89367 
179 1 1 0.00736632 -0.0231031 0.00394274 0 0 0 1.48737e-06 -4.92067e-06 -8.50353e-06 -5.03752e-06 2.85103e-06 7.95679e-07 0.000595052 0.00100034 -5.7678e-05 0.004 646.21 -3.27479 
95 1 1 0.0148506 -0.02031 0.0039321 0 0 0 4.06915e-06 -3.242e-06 -1.15764e-05 -5.42451e-06 8.13011e-07 1.61166e-06 0.00042785 0.00081308 -1.50073e-05 0.004 703.647 -4.11294 
76 1 1 0.0230028 -0.0233057 0.00397472 0 0 0 6.11054e-06 -1.90416e-06 -6.51794e-06 -5.41269e-06 6.00815e-08 4.71425e-07 4.99341e-06 0.0014612 0.000131189 0.004 759.816 -3.76445 
100 1 1 0.0325586 -0.0200895 0.00388594 0 0 0 7.16837e-06 -1.69557e-06 -6.88287e-06 -4.37258e-06 -1.76609e-06 2.29045e-06 -0.000259817 0.00118839 -0.00011014 0.004 781.909 -2.51429 
65 1 1 -0.0430742 -0.0162802 0.00393145 0 0 0 -2.82022e-07 -4.6753e-08 3.98739e-07 1.46299e-06 4.67876e-07 1.9837e-06 9.09676e-05 -0.000134785 0.000250105 0.004 305.352 1.15209 
102 1 1 -0.0351583 -0.0155178 0.0039445 0 0 0 9.79347e-07 -3.73568e-06 -5.31873e-07 4.52881e-06 -5.35001e-06 1.62096e-06 0.000665275 0.000409774 -0.00173023 0.004 311.366 1.85184 
213 1 1 -0.0132588 -0.0162738 0.00397365 0 0 0 -4.91584e-06 -5.63144e-06 -3.39888e-06 -3.71492e-06 -3.97694e-06 1.19e-06 0.000392845 -0.00103284 -0.000370548 0.004 386.989 4.83275 
10 1 1 0.00114848 -0.0182524 0.00475003 0 0 0 -2.64156e-06 -6.58092e-06 -1.09281e-05 -5.54912e-06 4.28739e-06 3.02725e-06 0.000298477 -0.00173764 -6.77742e-05 0.004 569.491 -0.758545 
5 1 1 0.00879793 -0.0152553 0.00390315 0 0 0 1.78707e-06 -4.24013e-06 -1.06175e-05 -3.44347e-06 3.32348e-06 1.87759e-06 0.000814904 0.000109921 0.000703446 0.004 656.863 -3.39086 
96 1 1 0.0211693 -0.0155242 0.00395651 0 0 0 5.58023e-06 -3.16674e-06 -8.94258e-06 -3.67913e-06 -2.46357e-06 7.67884e-07 0.000258238 0.000587729 -0.000226825 0.004 753.131 -3.76484 
167 1 1 0.0421923 -0.0183683 0.00392111 0 0 0 2.36874e-06 -7.47992e-07 -1.74383e-06 -1.55304e-06 -4.16415e-08 8.38106e-07 0.000241345 0.00050395 0.000358062 0.004 794.696 -1.16051 
124 1 1 -0.029011 -0.0104716 0.00394792 0 0 0 3.13041e-06 -5.81044e-06 -2.57124e-06 8.46516e-06 -9.71687e-06 -3.1309e-06 0.00128502 0.00116572 0.00129034 0.004 324.101 2.82584 
220 1 1 -0.0217759 -0.0144543 0.00398045 0 0 0 -6.76972e-08 -4.05831e-06 -2.87118e-06 9.37724e-06 -9.35214e-06 1.1463e-06 -0.000178189 0.000885465 0.000625345 0.004 345.737 3.70932 
144 1 1 -0.00535514 -0.0138038 0.00388181 0 0 0 -2.47038e-06 -5.3527e-06 -1.23095e-05 -3.69614e-06 3.59204e-06 3.6708e-06 0.000574794 -0.000337554 0.000280726 0.004 496.243 1.71999 
26 1 1 0.00255576 -0.0104629 0.00390569 0 0 0 -1.23642e-06 -5.69045e-06 -9.94298e-06 -3.03391e-06 4.29121e-06 3.53026e-06 0.000297504 -0.000990657 -3.59227e-06 0.004 575.458 -0.991855 
194 1 1 0.0287353 -0.013103 0.00393079 0 0 0 6.32397e-06 -1.83845e-06 -8.20945e-06 -5.44764e-06 -1.42177e-06 2.1418e-06 -8.08801e-05 0.000807669 0.000319139 0.004 777.289 -2.80832 
37 1 1 0.0366701 -0.0122308 0.00393303 0 0 0 6.12852e-06 1.70611e-06 -8.41937e-06 -4.68055e-06 -4.58609e-06 3.33101e-06 0.000133684 0.00111653 0.0017923 0.004 791.74 -1.5342 
219 1 1 0.0447285 -0.0108715 0.00390888 0 0 0 3.44363e-07 7.22304e-09 -1.1986e-06 -4.73455e-07 -8.02122e-07 7.40218e-07 0.000286324 -1.06585e-05 0.000185331 0.004 797.234 -0.742613 
636 1 1 -0.0451997 -0.00864275 0.00391771 0 0 0 2.58685e-07 -3.11887e-07 5.55474e-07 2.52524e-06 -4.37417e-08 1.80908e-06 8.96792e-05 5.19622e-05 -0.000287904 0.004 302.815 0.727997 
39 1 1 -0.0161466 -0.00885107 0.00388992 0 0 0 -2.54004e-06 -3.90831e-06 -5.94794e-06 -1.77768e-06 -2.12363e-06 7.9271e-07 0.000859924 8.17452e-05 -0.000356212 0.004 386.243 3.78252 
171 1 1 -0.00395981 -0.00597828 0.00392048 0 0 0 -2.45807e-06 -5.4087e-06 -9.87034e-06 -3.15747e-06 4.02488e-06 1.96032e-06 0.000809651 -0.000382065 -0.000150619 0.004 503.004 1.37579 
200 1 1 0.0146298 -0.00986521 0.00396378 0 0 0 2.77366e-06 -3.39546e-06 -1.01852e-05 -4.91751e-06 1.82797e-06 1.56581e-06 0.000574414 0.00055883 -0.000497967 0.004 711.136 -4.3335 
21 1 1 0.022252 -0.00762162 0.00394336 0 0 0 4.48535e-06 -3.17349e-06 -9.7803e-06 -4.31369e-06 -1.98698e-06 1.88865e-06 0.000521059 0.000982217 0.000339553 0.004 756.124 -3.80677 
17 1 1 0.0298456 -0.00520717 0.00394874 0 0 0 3.31908e-06 -5.43107e-07 -8.67019e-06 -5.15373e-06 -3.43417e-06 4.1592e-06 0.000155437 0.000557391 0.000471312 0.004 777.638 -2.90173 
477 1 1 -0.0445832 -0.000710813 0.00396286 0 0 0 6.4715e-07 -4.59218e-07 1.60752e-06 2.27671e-07 -1.2664e-07 1.70187e-06 0.00010474 -3.01905e-05 0.000145137 0.004 302.759 0.680248 
140 1 1 -0.0352672 -0.00371827 0.0038725 0 0 0 -2.34425e-06 -1.88201e-06 -9.61514e-07 -3.31143e-06 -1.38338e-06 8.32536e-07 0.000615897 -0.000272335 -0.000576307 0.004 313.324 1.84252 
119 1 1 -0.0273891 -0.00269833 0.00396393 0 0 0 -2.02602e-06 -3.0112e-06 -1.20338e-06 -2.65498e-06 -4.72923e-06 1.91916e-07 -1.41117e-05 6.06919e-05 5.40808e-05 0.004 331.513 2.95009 
207 1 1 -0.0194911 -0.00168728 0.00389516 0 0 0 -2.98613e-06 -2.34042e-06 -2.55064e-06 -5.12797e-06 -2.48133e-06 -5.31778e-07 0.000293892 -0.000438132 0.00027373 0.004 366.181 3.68881 
69 1 1 -0.0111572 -0.00264551 0.00393011 0 0 0 -2.12226e-06 -3.52737e-06 -4.92191e-06 -4.92877e-06 8.45702e-07 8.88028e-07 0.000644043 -0.00018839 0.000106339 0.004 427.981 3.3278 
221 1 1 0.00874806 -0.00448989 0.00393203 0 0 0 1.59373e-06 -4.50389e-06 -9.54257e-06 -3.23828e-06 3.80474e-06 4.92327e-07 0.000211769 6.79231e-05 0.00081587 0.004 668.978 -3.85903 
457 1 1 0.0163506 -0.00208061 0.0039593 0 0 0 2.86472e-06 -3.00962e-06 -8.40032e-06 -3.90835e-06 1.44598e-06 1.41957e-06 0.00110327 0.000819265 0.000199012 0.004 724.037 -4.51445 
155 1 1 0.0378912 -0.00224685 0.00393692 0 0 0 5.57022e-06 2.06435e-06 -7.28318e-06 -2.69415e-06 -6.32957e-06 1.21792e-06 -3.50416e-05 0.00155353 0.00171036 0.004 792.268 -1.38885 
665 1 1 0.0459183 -0.00307627 0.0039426 0 0 0 1.38394e-06 1.15722e-06 -1.6376e-06 1.06778e-07 -1.4983e-06 3.50951e-07 -0.000535674 0.00028003 -0.000421527 0.004 797.097 -0.7442 
120 1 1 0.00918488 -0.0371091 0.00876934 0 0 0 1.70712e-06 -5.77473e-06 -1.52293e-05 -2.45241e-06 1.39481e-06 4.33877e-06 -0.00016765 -0.000578485 0.000531763 0.004 649.811 -3.38159 
9 1 1 -0.0247147 -0.033359 0.00937624 0 0 0 -5.35533e-06 -5.48572e-06 -5.63524e-06 -1.52576e-07 -2.74782e-06 3.26103e-06 -0.00040705 -1.26781e-05 0.000360815 0.004 341.583 4.00866 
101 1 1 -0.0188614 -0.0277191 0.00955149 0 0 0 -5.97523e-06 -1.09087e-05 -7.6829e-06 -2.07822e-06 -6.52778e-06 3.82192e-06 0.000258171 -2.47783e-05 0.000716023 0.004 359.588 4.29598 
48 1 1 0.0221999 -0.0293139 0.0092003 0 0 0 5.2079e-06 -2.74145e-06 -1.10236e-05 -6.45349e-06 1.41882e-06 2.46514e-06 0.000544907 0.000267543 0.00131829 0.004 743.351 -3.93145 
75 1 1 0.02936 -0.0261745 0.00787421 0 0 0 5.8178e-06 -1.08233e-06 -7.7227e-06 -5.63637e-06 -2.03313e-06 1.48904e-06 -0.000254407 -0.000663929 -0.00100408 0.004 772.468 -3.09881 
46 1 1 -0.0327912 -0.0205809 0.00958352 0 0 0 -2.03874e-06 -3.86006e-06 -6.30129e-07 6.8297e-07 -2.99785e-06 3.85613e-06 -0.00113995 0.000674246 -0.000390513 0.004 318.549 2.49946 
33 1 1 -0.0130339 -0.0220249 0.0094957 0 0 0 -2.50336e-06 -9.72488e-06 -1.04077e-05 -5.91635e-06 -4.33113e-06 2.30027e-06 0.000563023 0.0018501 0.00158774 0.004 390.962 4.33212 
11 1 1 0.0268901 -0.0187448 0.00924461 0 0 0 9.89044e-06 -2.10676e-06 -1.30749e-05 -8.6395e-06 -4.05249e-06 2.63498e-06 -0.000332455 -0.001074 -0.00021747 0.004 768.398 -3.24995 
71 1 1 -0.0372751 -0.00954696 0.00876625 0 0 0 -1.14373e-06 -2.20275e-06 -8.90127e-07 2.65343e-06 7.68748e-07 8.0197e-06 -0.00099175 -0.00067602 0.00175032 0.004 308.351 1.45777 
62 1 1 -0.0228082 -0.00771371 0.00814043 0 0 0 -4.12044e-07 -6.56404e-06 -4.81497e-06 -2.11315e-06 -6.78375e-06 -1.32102e-06 0.00060889 5.03853e-05 -3.95661e-05 0.004 346.962 3.59392 
19 1 1 -0.00970668 -0.00905634 0.00849075 0 0 0 -4.63778e-06 -9.39976e-06 -1.50203e-05 -5.36548e-06 3.32385e-06 2.30022e-06 0.000675334 0.000216898 3.77665e-05 0.004 458.196 2.47446 
187 1 1 0.0079671 -0.00988207 0.00975753 0 0 0 1.01681e-05 -1.05165e-05 -1.43656e-05 8.08948e-06 8.01477e-06 1.07042e-07 0.00143586 0.00330905 -0.00123962 0.004 655.858 -4.33456 
157 1 1 0.0395817 -0.00751948 0.00963111 0 0 0 7.29345e-06 3.50257e-06 -1.28724e-05 -2.70588e-06 -7.24657e-06 3.45896e-06 -0.000546663 -0.000943564 -0.0018027 0.004 795.059 -1.07678 
18 1 1 0.00229116 -0.00404903 0.00852647 0 0 0 -2.79067e-06 -8.198e-06 -1.86554e-05 -4.66609e-06 7.1626e-06 2.77058e-06 -0.000279549 -0.00130488 -0.00034889 0.004 572.944 -0.86381 
185 1 1 -0.00531148 -0.045735 0.0104438 0 0 0 -2.40034e-06 -5.25878e-06 -7.0509e-06 8.03151e-07 7.02114e-07 1.1176e-06 -0.000713999 -0.000613121 0.000821658 0.004 484.617 2.40488 
83 1 1 0.00256736 -0.0459473 0.0112661 0 0 0 -3.00925e-07 -4.13576e-06 -1.15099e-05 9.59078e-07 1.2543e-06 4.83415e-06 -0.0027622 0.00147737 -0.000442704 0.004 567.705 -0.797715 
58 1 1 -0.0218568 -0.0405821 0.0112769 0 0 0 -3.89512e-06 -4.19187e-06 -3.97964e-06 1.45335e-06 -3.10601e-06 2.94391e-06 -0.000210485 0.000108086 0.000190831 0.004 354.269 4.45142 
105 1 1 -0.013586 -0.043966 0.0108788 0 0 0 -2.58893e-07 -1.8499e-06 -6.35057e-06 4.59409e-07 -3.66126e-07 3.10135e-07 -0.00134825 0.000976975 -0.000503795 0.004 397.583 5.67245 
223 1 1 0.0103957 -0.0448674 0.0106706 0 0 0 1.33102e-06 -4.41075e-06 -1.15515e-05 3.76413e-07 1.41072e-06 5.54375e-06 -0.00157458 -0.00166535 0.000457705 0.004 641.669 -3.23695 
217 1 1 0.0179433 -0.0424254 0.0108281 0 0 0 3.26041e-06 -3.42501e-06 -8.42116e-06 -1.04408e-06 1.94734e-06 3.63566e-06 -0.00100191 -0.000396235 -0.000221641 0.004 698.027 -4.40624 
6 1 1 -0.0162615 -0.0350311 0.0113114 0 0 0 -2.97037e-06 -1.06783e-05 -1.28323e-05 2.69897e-06 -4.44547e-06 4.08009e-06 0.000212784 0.00267836 -0.00145946 0.004 382.26 4.41719 
151 1 1 -0.00801307 -0.0382603 0.0108115 0 0 0 -5.36101e-07 -1.02631e-05 -1.41841e-05 1.56663e-06 -3.98933e-07 2.2779e-06 0.000919828 4.73295e-05 -0.000751244 0.004 448.509 3.5152 
2 1 1 0.000443934 -0.038308 0.010271 0 0 0 4.94883e-07 -9.36263e-06 -1.70728e-05 2.26378e-07 2.05448e-06 4.91367e-06 0.000846832 0.000611543 -0.000392202 0.004 548.694 0.0930057 
117 1 1 0.0249196 -0.0387267 0.0109176 0 0 0 3.98901e-06 -3.16143e-06 -6.53105e-06 -1.08888e-06 7.63555e-07 2.89665e-06 -0.000269251 0.00024279 -0.00043145 0.004 742.784 -4.26884 
13 1 1 -0.0323455 -0.0327547 0.011537 0 0 0 -2.76191e-06 -2.11569e-06 -9.84949e-07 3.70985e-07 -1.03561e-06 3.6556e-06 0.000170635 0.000471243 -0.000348376 0.004 323.585 3.10574 
193 1 1 -0.00982578 -0.0305006 0.0107685 0 0 0 -5.35379e-06 -1.25587e-05 -2.09775e-05 -1.38863e-07 -1.02907e-06 4.56191e-06 -0.00182802 -0.001323 0.00177092 0.004 438.507 3.55935 
47 1 1 -0.00133755 -0.0305434 0.0103848 0 0 0 -5.55412e-06 -1.37571e-05 -1.91935e-05 -3.51274e-06 4.28176e-06 5.71498e-06 0.000507705 -0.00133971 0.00191586 0.004 534.301 0.649606 
153 1 1 0.00656466 -0.0300231 0.0113662 0 0 0 -4.04853e-07 -9.77369e-06 -2.36515e-05 -6.85119e-06 5.44116e-06 4.99715e-06 0.000606127 -0.000297107 -0.000727462 0.004 620.403 -2.40723 
41 1 1 0.0148077 -0.0317915 0.010654 0 0 0 2.93503e-06 -8.32025e-06 -1.84397e-05 -7.29016e-06 3.71176e-06 3.97021e-06 0.000298368 -0.000645986 -0.000394095 0.004 696.389 -4.27602 
163 1 1 0.0311566 -0.0339183 0.0111114 0 0 0 4.28451e-06 -3.20963e-06 -6.48651e-06 -1.88954e-06 -1.33519e-07 2.42466e-06 1.01493e-06 -0.000488548 0.000407975 0.004 771.652 -3.20638 
214 1 1 -0.0375015 -0.0268265 0.010714 0 0 0 -1.93324e-06 -1.17335e-06 1.27287e-06 8.13868e-07 -1.0054e-06 4.35904e-06 0.000398381 -0.000471537 -5.17544e-05 0.004 314.063 2.19677 
210 1 1 0.0364694 -0.0280972 0.0111134 0 0 0 3.83767e-06 -1.18327e-06 -5.40138e-06 -2.71081e-06 -5.12592e-07 2.02574e-06 -0.000385297 -0.000287915 -9.69772e-05 0.004 786.5 -2.10257 
108 1 1 -0.0260915 -0.0246403 0.0109304 0 0 0 -5.65111e-06 -1.23058e-05 -4.19986e-06 -2.30026e-06 -9.38741e-06 8.88646e-06 0.00129859 8.85189e-05 -0.00114908 0.004 334.745 3.4139 
40 1 1 -0.00551108 -0.0238697 0.0113285 0 0 0 -3.48676e-06 -1.28479e-05 -1.94168e-05 -6.11647e-06 3.13091e-06 4.86732e-06 0.0015101 -0.00178049 -0.00217131 0.004 481.222 2.27787 
55 1 1 0.00236214 -0.0232852 0.0108248 0 0 0 1.28228e-06 -1.10795e-05 -2.28732e-05 -8.53391e-06 8.00699e-06 4.10045e-06 -0.000421836 0.0037519 0.00113396 0.004 580.999 -1.01434 
91 1 1 0.0120919 -0.0243837 0.0101855 0 0 0 3.9078e-06 -1.04222e-05 -2.14734e-05 -9.91497e-06 3.64412e-06 4.32093e-06 -0.000107327 -0.000203354 0.00016 0.004 677.91 -3.99491 
112 1 1 0.0192794 -0.0205361 0.0105072 0 0 0 8.79822e-06 -8.85332e-06 -2.79548e-05 -9.71581e-06 -7.84615e-07 4.30286e-06 0.00233045 -0.00134234 0.00127087 0.004 729.266 -4.35719 
178 1 1 0.0318658 -0.0225254 0.0144788 0 0 0 1.33342e-05 -7.21288e-07 -1.37319e-05 -8.67114e-06 -3.52675e-06 5.10041e-06 -0.000142904 0.00151703 0.00027838 0.004 782.861 -2.41593 
131 1 1 0.0407765 -0.0214683 0.0110513 0 0 0 4.73196e-06 -1.05209e-06 -4.30789e-06 -2.89955e-06 -3.48952e-07 2.31665e-06 -0.000185209 -0.000540272 -0.000323989 0.004 792.636 -1.42744 
160 1 1 -0.0414721 -0.0199398 0.0108131 0 0 0 -1.42335e-07 -3.15588e-07 1.29315e-06 1.29681e-06 -4.94176e-07 3.07521e-06 -9.33767e-05 0.00011082 -2.37199e-05 0.004 306.565 1.32788 
43 1 1 -0.0361086 -0.0151005 0.0142598 0 0 0 1.51634e-06 7.49263e-08 1.3318e-06 -4.72016e-08 -2.51166e-06 7.8649e-06 0.000450663 0.000311231 -0.000576851 0.004 311.939 1.79033 
4 1 1 -0.0270342 -0.0151183 0.010074 0 0 0 2.55526e-06 -1.10347e-05 -7.60509e-06 5.63402e-06 -9.72271e-06 -2.43858e-06 -0.000218787 -0.000370983 -0.00226141 0.004 330.553 3.19443 
104 1 1 -0.0203009 -0.0192301 0.0111977 0 0 0 -3.95351e-06 -1.59814e-05 -8.15661e-06 -3.60357e-06 -9.96188e-06 7.1875e-06 -0.00092858 0.00072554 4.28096e-05 0.004 356.445 3.98496 
20 1 1 -0.00745474 -0.0162218 0.0110955 0 0 0 -1.81656e-06 -1.27514e-05 -2.0619e-05 -7.2072e-06 5.38158e-06 5.48973e-06 -5.95956e-06 -0.000527524 0.00170721 0.004 474.014 2.30901 
45 1 1 0.000825135 -0.0164513 0.0146047 0 0 0 -9.43528e-07 -1.19019e-05 -3.18479e-05 -8.34448e-06 1.05515e-05 7.94111e-06 -0.000953376 -0.000394268 0.000903866 0.004 559.661 -0.314239 
159 1 1 0.00795165 -0.0177076 0.011347 0 0 0 2.57647e-06 -1.20324e-05 -2.89638e-05 -7.36868e-06 7.46662e-06 5.3785e-06 0.000644876 -0.000750467 -0.000391759 0.004 649.06 -3.18642 
136 1 1 0.0347931 -0.0163371 0.0104655 0 0 0 1.08797e-05 -1.52551e-07 -1.4591e-05 -8.95767e-06 -3.91968e-06 5.3255e-06 -0.000702384 -0.00109331 -0.000247458 0.004 787.501 -1.9801 
177 1 1 -0.0443274 -0.0125289 0.0108104 0 0 0 1.57894e-07 -1.23869e-06 4.30052e-07 1.43115e-06 -1.22545e-06 3.37668e-06 -0.000109895 0.000191538 -0.000416507 0.004 304.435 0.98265 
139 1 1 -0.0168209 -0.0121092 0.0110439 0 0 0 -2.30306e-06 -1.47754e-05 -1.4081e-05 -6.80249e-06 -6.30167e-06 1.93988e-06 0.00154677 0.000918083 -0.000512218 0.004 378.107 3.84114 
211 1 1 -0.00209533 -0.0104148 0.0103075 0 0 0 -5.26956e-06 -8.96508e-06 -2.26465e-05 -6.46267e-06 7.74164e-06 5.20078e-06 0.000742633 0.000437693 -1.76255e-05 0.004 526.341 0.665141 
54 1 1 0.0149155 -0.0138957 0.0108308 0 0 0 5.4993e-06 -1.13323e-05 -2.35981e-05 -7.77934e-06 1.88125e-06 3.44473e-06 0.00146659 0.00022192 -0.000208088 0.004 711.036 -4.47946 
84 1 1 0.023272 -0.0118009 0.0106602 0 0 0 1.14183e-05 -4.38482e-06 -2.07551e-05 -1.1055e-05 -3.10143e-06 4.5851e-06 0.000119987 8.02704e-05 0.000549283 0.004 759.52 -3.69097 
180 1 1 0.0438204 -0.0140997 0.0110465 0 0 0 2.55687e-06 -4.86916e-07 -4.31228e-06 -1.48782e-06 -2.24122e-06 2.21949e-06 -0.000335894 2.66381e-05 0.000505204 0.004 796.462 -0.872106 
103 1 1 0.0174441 -0.00636561 0.0105707 0 0 0 7.1735e-06 -7.66504e-06 -2.1921e-05 -9.56313e-06 1.42935e-06 3.63523e-06 0.000133094 -0.00034946 0.000319103 0.004 729.03 -4.33202 
156 1 1 0.0308892 -0.00946111 0.0106299 0 0 0 1.01638e-05 -8.96252e-07 -1.79741e-05 -1.07066e-05 -5.94844e-06 6.59047e-06 0.000445445 0.000203783 0.000430077 0.004 779.223 -2.65834 
197 1 1 -0.045783 -0.0047112 0.0107571 0 0 0 3.02383e-07 -4.12793e-07 1.77403e-06 2.03983e-06 2.61042e-07 3.1391e-06 0.000179223 -0.000218392 0.000100929 0.004 302.942 0.728946 
87 1 1 -0.0386059 -0.00381153 0.0141381 0 0 0 -2.09568e-06 -1.10503e-05 3.22558e-06 -8.04852e-07 5.97578e-06 4.68599e-06 0.00239415 0.000275213 -0.00229636 0.004 306.115 1.16173 
130 1 1 -0.0313597 -0.0038738 0.0107775 0 0 0 -9.28135e-07 -1.05022e-05 -3.58354e-06 -4.91814e-06 -4.1229e-06 1.09088e-06 0.00237572 0.000851135 0.0017272 0.004 316.743 2.15142 
604 1 1 -0.0224594 -0.000300839 0.0110796 0 0 0 -5.96919e-06 -9.01049e-06 -2.25928e-06 -1.29374e-05 -4.1848e-06 -2.45193e-06 0.0013064 0.000407641 0.000796841 0.004 354.892 3.41178 
146 1 1 -0.0155078 -0.00400724 0.0103914 0 0 0 -4.43214e-06 -8.62996e-06 -1.01785e-05 -1.09795e-05 -2.19236e-06 -2.25803e-08 0.00121644 0.000299994 -0.000858929 0.004 400.312 3.43335 
57 1 1 -0.00517516 -0.00310606 0.0111955 0 0 0 -3.78283e-06 -6.72367e-06 -2.16006e-05 -7.30311e-06 6.65736e-06 1.27807e-06 -0.00129115 0.000790458 0.000179435 0.004 502.285 1.42091 
493 1 1 0.0116957 -0.000875045 0.0103666 0 0 0 4.01218e-06 -6.85027e-06 -2.1511e-05 -7.21447e-06 6.37541e-06 3.42053e-06 0.00164484 0.000666515 0.000548349 0.004 688.399 -4.06852 
31 1 1 0.0250484 -0.00405416 0.01046 0 0 0 7.34362e-06 -4.24932e-06 -1.84952e-05 -8.80071e-06 -3.27144e-06 4.29433e-06 0.000500651 -0.000496755 0.00056853 0.004 761.035 -3.5239 
588 1 1 0.0325999 -0.00174523 0.010543 0 0 0 5.16084e-06 1.27167e-06 -1.46151e-05 -6.57761e-06 -6.43461e-06 5.61352e-06 -0.000162294 0.000480894 0.000998225 0.004 779.551 -2.52698 
63 1 1 0.045924 -0.00327879 0.0119252 0 0 0 3.34209e-06 8.48919e-07 -5.41543e-06 -2.49809e-06 -4.42884e-06 1.39996e-06 0.00108515 -0.00075941 0.000779932 0.004 796.436 -0.835065 
107 1 1 -0.00850633 -0.045273 0.017677 0 0 0 -2.01601e-08 -6.39884e-06 -8.53305e-06 2.43707e-06 -7.30984e-07 5.20092e-06 -0.000674174 0.0020549 -0.000307525 0.004 466.637 2.78898 
222 1 1 -0.00141959 -0.0418101 0.0171129 0 0 0 1.79905e-06 -1.39332e-05 -2.17847e-05 1.50173e-06 1.6357e-06 6.11365e-06 0.000662672 0.00101016 -0.000745187 0.004 538.845 0.455702 
142 1 1 0.00615865 -0.0401388 0.0154211 0 0 0 6.43718e-07 -1.10046e-05 -2.30875e-05 1.40137e-07 4.30512e-06 7.971e-06 0.00054606 -0.000187911 0.000587644 0.004 608.51 -2.05581 
172 1 1 0.0116014 -0.0446446 0.0189547 0 0 0 1.10838e-06 -7.09777e-06 -1.56174e-05 5.35349e-07 3.60642e-06 6.46279e-06 -0.00252581 -0.000267503 0.000309168 0.004 653.497 -3.59624 
109 1 1 0.0204197 -0.0412797 0.0183141 0 0 0 -1.82788e-06 -2.67454e-06 -9.91004e-06 1.98593e-06 2.27456e-06 4.00868e-06 -0.000280076 -0.00225757 0.00057703 0.004 727.477 -4.84769 
150 1 1 -0.0273271 -0.0370831 0.0158763 0 0 0 -2.52385e-06 -3.1488e-06 -3.15479e-06 1.67488e-06 -8.80147e-07 4.5447e-06 -0.000270141 0.000494484 -0.000316229 0.004 337.628 3.80293 
38 1 1 -0.0197787 -0.0373719 0.0182823 0 0 0 -7.96229e-07 -9.28016e-06 -1.40272e-05 3.62826e-06 -3.88401e-06 3.05356e-06 -0.00117311 0.00206221 -0.000867823 0.004 368.216 4.37569 
199 1 1 -0.0118545 -0.0370266 0.01765 0 0 0 -2.11761e-06 -1.60943e-05 -2.06623e-05 2.69657e-06 -4.17415e-06 5.72842e-06 0.000577754 -0.000995974 -0.000634558 0.004 407.323 4.27211 
93 1 1 0.0137643 -0.0377759 0.0156807 0 0 0 2.44034e-07 -8.4567e-06 -2.32953e-05 -2.18118e-06 4.61655e-06 7.9136e-06 -0.000134692 -0.00147147 0.000719579 0.004 678.835 -4.094 
64 1 1 0.0280177 -0.0365092 0.0179285 0 0 0 1.00491e-06 -1.3009e-06 -1.25078e-05 9.10737e-07 -2.30199e-07 5.89952e-06 -0.00135312 -0.00186521 -0.000439856 0.004 767.385 -3.78079 
22 1 1 -0.0327402 -0.032422 0.0194567 0 0 0 -2.29026e-06 -3.82422e-06 -5.0581e-07 2.37275e-06 -4.87998e-06 5.6191e-06 0.000286667 0.000186442 0.00014571 0.004 321.609 2.85637 
174 1 1 -0.0224319 -0.0302105 0.0162617 0 0 0 -3.73837e-06 -1.16199e-05 -9.38773e-06 1.04466e-06 -7.23549e-06 6.5867e-06 0.00133934 0.00173122 0.000499992 0.004 354.092 4.15411 
32 1 1 -0.00428306 -0.0343967 0.0166774 0 0 0 -2.1068e-06 -1.71153e-05 -2.46484e-05 -3.42235e-06 1.25097e-07 6.18306e-06 -0.000982317 2.89373e-05 0.00133526 0.004 503.299 1.71667 
128 1 1 0.00347465 -0.033132 0.0179959 0 0 0 -1.14562e-06 -1.37094e-05 -3.3845e-05 -6.28386e-06 5.31929e-06 8.37637e-06 -0.000716492 0.00031051 0.000107331 0.004 578.285 -1.01898 
88 1 1 0.0113688 -0.0304834 0.0177099 0 0 0 1.77593e-06 -1.05703e-05 -3.32585e-05 -1.04248e-05 4.24228e-06 7.59938e-06 -0.000571593 3.09091e-05 0.000117689 0.004 674.305 -3.86955 
137 1 1 0.0208047 -0.0338186 0.0156333 0 0 0 1.42136e-06 -5.38242e-06 -1.55983e-05 -3.5721e-06 7.86627e-07 2.30139e-06 -0.00110911 -0.0029744 0.000670328 0.004 741.818 -4.69218 
154 1 1 0.0339821 -0.0311387 0.0180551 0 0 0 4.42522e-06 -2.02824e-06 -6.52516e-06 -4.1091e-06 7.41665e-07 3.29488e-06 -0.000527883 -0.000775464 0.000219422 0.004 783.826 -2.30485 
52 1 1 -0.031991 -0.0252343 0.0161625 0 0 0 -2.6878e-06 -7.2667e-06 -6.85888e-07 1.78463e-07 -6.34133e-06 1.03027e-05 -0.000161774 0.000676714 -0.00143089 0.004 320.668 2.58976 
80 1 1 -0.00960093 -0.0265066 0.0175805 0 0 0 -6.95211e-06 -1.49242e-05 -2.98169e-05 -4.21394e-06 -7.15373e-07 7.71726e-06 0.000845361 0.00146164 -7.47984e-05 0.004 440.804 3.28484 
125 1 1 -0.00117355 -0.0267001 0.0173741 0 0 0 -2.97331e-06 -1.55172e-05 -3.32336e-05 -9.78788e-06 5.81811e-06 9.18798e-06 -0.00263427 0.00459039 0.000317598 0.004 534.418 0.67031 
72 1 1 0.0179273 -0.0264316 0.0156369 0 0 0 5.67684e-06 -1.12631e-05 -3.4699e-05 -9.74883e-06 2.23927e-06 6.06571e-06 -0.00205822 0.00027146 -0.00107127 0.004 722.368 -4.60667 
34 1 1 0.0269648 -0.0287251 0.0154182 0 0 0 1.02872e-05 -1.61978e-06 -1.4836e-05 -7.25292e-06 -2.90886e-06 3.56965e-06 -0.00103429 9.04321e-05 -0.00178109 0.004 769.459 -3.15082 
218 1 1 -0.0395968 -0.0234663 0.0176916 0 0 0 2.53897e-07 -7.56212e-07 1.49255e-06 2.27563e-08 -1.1948e-06 4.90368e-06 0.000579663 3.02372e-05 -0.000260052 0.004 308.583 1.53262 
70 1 1 -0.0247175 -0.0230257 0.0185786 0 0 0 -2.57457e-06 -1.3383e-05 -7.98849e-06 -9.52397e-07 -1.1019e-05 1.18731e-05 -0.00155756 0.00109874 5.34701e-05 0.004 340.783 3.36834 
132 1 1 -0.0171323 -0.0242634 0.0164744 0 0 0 -4.73746e-06 -1.46661e-05 -1.55316e-05 -1.37806e-06 -6.32019e-06 7.40763e-06 -0.000149314 0.0012857 -0.000348202 0.004 375.886 4.01281 
196 1 1 0.0071666 -0.023789 0.0170601 0 0 0 9.56465e-06 -1.06927e-05 -4.1703e-05 -1.44445e-05 6.73884e-06 6.93778e-06 0.000655307 -0.00155184 -0.00109976 0.004 643.648 -2.91032 
362 1 1 0.0243874 -0.0214292 0.0170616 0 0 0 1.85284e-05 -3.66591e-06 -2.9698e-05 -1.55264e-05 -3.98779e-06 6.51784e-06 -0.000284376 -0.00436107 -1.73968e-05 0.004 768.695 -3.24991 
49 1 1 0.0387628 -0.0248027 0.0179814 0 0 0 4.69744e-06 -1.5356e-06 -5.79017e-06 -4.38778e-06 5.96752e-07 3.18486e-06 0.000214016 1.53385e-05 -0.00034472 0.004 791.162 -1.62213 
173 1 1 -0.0431191 -0.0163148 0.0177078 0 0 0 6.50076e-07 8.54757e-07 1.87866e-06 -2.06472e-06 -2.32203e-06 3.69883e-06 -0.000421089 -0.000409034 0.0001959 0.004 306.513 1.21469 
50 1 1 -0.0295064 -0.0167658 0.0182812 0 0 0 1.50299e-06 -1.04458e-05 -4.41933e-06 -4.33616e-06 -1.30253e-05 6.97634e-06 0.000518787 0.00113908 -0.00170201 0.004 323.807 2.51624 
202 1 1 -0.0134618 -0.0172167 0.0161107 0 0 0 -2.30081e-06 -1.95808e-05 -2.30617e-05 -7.44795e-06 -9.22896e-07 7.83271e-06 0.000129064 0.000613019 -0.000590043 0.004 409.482 3.58952 
86 1 1 -0.00524858 -0.0199157 0.0183757 0 0 0 -3.17285e-06 -1.50358e-05 -3.55357e-05 -9.75295e-06 6.03968e-06 8.59794e-06 0.000380281 -0.000243816 -0.000381359 0.004 496.897 1.84785 
129 1 1 0.0138598 -0.0196296 0.016286 0 0 0 1.25971e-05 -1.38398e-05 -3.7211e-05 -1.264e-05 3.41448e-06 7.20453e-06 -0.000227387 0.00283433 -0.000400704 0.004 700.005 -4.03002 
82 1 1 0.0291402 -0.0151359 0.0159324 0 0 0 1.72502e-05 -7.55057e-07 -2.27336e-05 -1.38746e-05 -6.19447e-06 6.75328e-06 -0.00077158 0.00188433 0.000381195 0.004 779.617 -2.61446 
1 1 1 0.0424683 -0.0178049 0.0178802 0 0 0 7.01204e-06 -1.64665e-06 -5.53639e-06 -4.4753e-06 -1.81368e-07 3.11062e-06 0.000152118 0.0001432 3.49894e-05 0.004 794.589 -1.14819 
168 1 1 -0.0224798 -0.0136303 0.016417 0 0 0 1.47283e-06 -1.60783e-05 -1.31461e-05 -8.3446e-06 -9.08982e-06 3.58806e-06 -0.000583704 0.000778897 -0.000234408 0.004 350.814 3.56603 
121 1 1 -0.00514887 -0.0120184 0.0174569 0 0 0 -2.3225e-06 -1.34601e-05 -3.2262e-05 -1.13554e-05 8.59363e-06 6.58017e-06 0.000746933 0.00111396 -0.000306826 0.004 506.632 1.35597 
28 1 1 0.00814321 -0.0139814 0.0183177 0 0 0 2.38745e-06 -1.45951e-05 -5.12057e-05 -1.24188e-05 1.36137e-05 9.04219e-06 -0.0010172 -9.78785e-05 -0.00179881 0.004 654.865 -3.49602 
42 1 1 0.0200409 -0.0148104 0.017266 0 0 0 1.44721e-05 -1.16288e-05 -4.0732e-05 -1.6496e-05 -3.05067e-07 7.99233e-06 0.000682899 -0.00116742 0.00104967 0.004 745.014 -3.85334 
60 1 1 0.0376281 -0.0116471 0.0161719 0 0 0 7.08367e-06 5.28564e-06 -2.07432e-05 -7.4858e-06 -4.88878e-06 7.42405e-06 -0.000211649 0.000483746 0.00167712 0.004 793.304 -1.29126 