ITEM: TIMESTEP
800
ITEM: NUMBER OF ATOMS
890
ITEM: BOX BOUNDS mm mm mm
-0.05 0.05
-0.05 0.05
0 0.15
ITEM: ATOMS id type type x y z ix iy iz vx vy vz fx fy fz omegax omegay omegaz radius f_Temp[0] f_heatFlux[0] 
195 1 1 -0.00461708 -0.0271095 0.00408292 0 0 0 -0.0454931 0.110395 -0.300474 0.104456 -0.0653388 -0.0335843 14.0013 -2.15343 5.44714 0.004 300 0 
148 1 1 -0.0114869 -0.0232505 0.00474993 0 0 0 -0.236556 0.0210622 -0.308597 -0.104456 0.0653388 -0.00849394 -5.42754 6.5205 2.77142 0.004 300 0 
183 1 1 0.0350764 -0.0239288 0.00413448 0 0 0 0.207816 0.0623174 0.0131232 0 0 -0.0210391 9.85529 1.84051 -2.36543 0.004 300 0 
140 1 1 -0.03192 -0.00490161 0.00450665 0 0 0 -0.00232828 0.0137281 0.235868 0 0 -0.0210391 -5.3441 -0.533952 1.09487 0.004 300 0 
207 1 1 -0.0155908 -0.00250695 0.00457127 0 0 0 0.0168128 0.201236 0.0304393 0 0 -0.0210391 3.88875 -0.278009 0.0713353 0.004 300 0 
221 1 1 0.00954311 -0.0055568 0.00426276 0 0 0 -0.224031 0.0600797 -0.0194537 -0.295163 0.0988074 -0.574812 2.93893 1.97375 -0.197659 0.004 300 0 
59 1 1 -0.00500259 -0.0365208 0.00412498 0 0 0 0.0618142 -0.139713 0.128388 0.00382706 -0.00269344 -0.0218837 8.50931 -0.0890764 7.64316 0.004 300 0 
158 1 1 0.0110199 -0.0396546 0.00401276 0 0 0 -0.0545257 -0.0792061 -0.195469 0.00118386 -0.000628693 -0.0106478 5.10723 9.38885 -2.78588 0.004 300 0 
30 1 1 -0.0210675 -0.0329056 0.004857 0 0 0 0 0 0.2795 0 0 -0.0210391 0 0 0 0.004 300 0 
113 1 1 0.0171268 -0.0278252 0.00469344 0 0 0 0.11101 0.0921877 -0.0376681 -0.0971244 0.00286495 -0.021165 1.5713 -4.59737 3.77177 0.004 300 0 
74 1 1 0.0050041 -0.0293021 0.00407272 0 0 0 -0.199623 -0.203839 0.0124034 0 0 -0.0210391 -9.10647 27.9312 6.75602 0.004 300 0 
161 1 1 0.025067 -0.0284353 0.00457343 0 0 0 -0.133876 -0.347967 -0.206209 0.0891966 0.0570341 0.0132787 -7.16342 10.8234 -10.7502 0.004 300 0 
8 1 1 -0.0281006 -0.0197571 0.00395927 0 0 0 0.0765495 0.200613 -0.269332 0.27445 -0.0908588 0.0966477 14.2516 -1.23551 2.05103 0.004 300 0 
95 1 1 0.0162189 -0.0198711 0.00425659 0 0 0 0.0350417 0.173628 0.118104 0 0 -0.0210391 0.54988 3.39468 -0.929261 0.004 300 0 
144 1 1 -0.00198726 -0.0187367 0.0042769 0 0 0 -0.231219 -0.180869 0.134441 -0.0589197 0.114646 -0.135731 4.20153 -5.76234 -2.69683 0.004 300 0 
65 1 1 -0.0397526 -0.00898318 0.0050284 0 0 0 -0.0975639 0.205593 0.0346813 0 0 -0.0210391 7.57226 3.5934 -4.4521e-15 0.004 300 0 
213 1 1 -0.00956588 -0.0140591 0.00505964 0 0 0 -0.0109212 -0.0204493 -0.299631 0.22598 -0.300285 -1.03701 -1.72713 8.48817 0.671045 0.004 300 0 
26 1 1 0.00767286 -0.0139888 0.00398763 0 0 0 -0.138336 0.0644534 0.203781 0.00277624 -0.00129351 -0.0822949 0.425817 0.913926 -6.58232e-15 0.004 300 0 
194 1 1 0.0224191 -0.0130653 0.00400538 0 0 0 -0.0610643 0.113014 -0.43222 0.0338765 0.0126362 -0.104635 15.7955 12.2598 9.29928 0.004 300 0 
219 1 1 0.0387109 -0.0145726 0.00380017 0 0 0 0.157129 -0.107139 -0.158764 -0.0357224 0.0242588 0.842576 -5.2507 -7.89572 0.686284 0.004 300 0 
124 1 1 -0.0227041 -0.00943145 0.00414534 0 0 0 -0.159774 -0.0279907 0.0854905 -0.258247 0.0278776 -0.160798 11.1432 33.4022 2.52254 0.004 300 0 
69 1 1 -0.00718964 -0.00520901 0.00506703 0 0 0 -0.143623 0.121087 0.110518 -0.106466 0.514348 -0.648537 5.32172 6.30513 1.09166 0.004 300 0 
171 1 1 0.000721959 -0.00609004 0.00522206 0 0 0 0.00296895 0.00629827 -0.195129 0.00131763 -0.000119145 -0.0209531 -5.47286 12.1992 2.55477 0.004 300 0 
17 1 1 0.0281644 -0.00601207 0.00531379 0 0 0 0.0570985 0.0797931 0.197907 0 0 -0.0210391 -20.076 14.366 1.44808e-16 0.004 300 0 
155 1 1 0.0362269 -0.00574287 0.00496477 0 0 0 -0.0207664 0.159037 -0.0833374 0 0 -0.0210391 8.00235 1.29872 0.134315 0.004 300 0 
170 1 1 -0.0143154 -0.040618 0.0072227 0 0 0 -0.206666 -0.114121 -0.252518 0 0 -0.0210391 5.1135 -9.26023 -7.18264e-15 0.004 300 0 
116 1 1 0.00312415 -0.0372365 0.00371319 0 0 0 -0.0909581 0.0232924 -0.124957 0.0672329 -0.0171868 1.36686 -3.60366 -14.0561 -0.0316672 0.004 300 0 
98 1 1 0.0193651 -0.038776 0.00617805 0 0 0 0.224468 -0.220979 -0.211087 0 0 -0.0210391 10.4358 7.27688 -3.01255 0.004 300 0 
15 1 1 -0.0114862 -0.0319571 0.00515025 0 0 0 -0.00709029 -0.134202 -0.443229 -0.00382706 0.00269344 -0.0201945 4.55997 -0.240044 -2.47235e-05 0.004 300 0 
163 1 1 0.031161 -0.0285032 0.00981734 0 0 0 0.153302 -0.30454 -0.0583178 0 0 -0.0210391 -6.52484 -4.42572 -10.0221 0.004 300 0 
77 1 1 0.000963154 -0.0241488 0.00926935 0 0 0 -0.0487256 -0.19862 -0.323722 0.0589197 -0.114646 0.0936526 6.74236 12.6731 4.29256 0.004 300 0 
24 1 1 0.0103609 -0.024753 0.00793739 0 0 0 -0.249665 0.00538228 -0.211419 0 0 -0.0210391 -11.8501 8.68069 12.6485 0.004 300 0 
162 1 1 -0.035496 -0.0179879 0.00599134 0 0 0 0.0328889 -0.185515 -0.337162 -0.277287 0.0813631 0.0594797 7.99774 3.02917 2.05103 0.004 300 0 
12 1 1 -0.0187526 -0.0195933 0.00437069 0 0 0 0 0 0.308804 0 0 -0.0210391 0 0 0 0.004 300 0 
76 1 1 0.0238421 -0.02172 0.00868151 0 0 0 0.0904698 0.113371 -0.143936 0.00792781 -0.0598991 -0.0552311 -5.12454 4.39734 -10.0441 0.004 300 0 
100 1 1 0.0295494 -0.0156966 0.00713455 0 0 0 0.0676251 0.0423977 -0.081661 0 0 -0.0210391 -6.14962 1.51147 0.205274 0.004 300 0 
211 1 1 0.00124974 -0.0138338 0.0101609 0 0 0 0.129185 0.223233 -0.099304 0 0 -0.0210391 -18.3122 16.6558 -7.36924 0.004 300 0 
39 1 1 -0.0156701 -0.00996873 0.00757181 0 0 0 0.174321 0.0590775 -0.157211 -0.313297 0.317131 0.330731 11.925 0.37657 -5.58953 0.004 300 0 
21 1 1 0.0176108 -0.0057668 0.00386563 0 0 0 -0.106835 -0.0195704 0.267501 -0.197141 -0.601899 0.149958 -23.8999 -12.9879 -2.82738 0.004 300 0 
83 1 1 -0.00242689 -0.0411244 0.0121422 0 0 0 0.0359552 -0.179184 -0.423994 0 0 -0.0210391 6.20062 1.1425 -0.27815 0.004 300 0 
217 1 1 0.011539 -0.0400314 0.0119772 0 0 0 0.249251 -0.158285 -0.137827 -0.00118386 0.000628693 -0.0314304 -6.45161 -8.29898 -2.66761 0.004 300 0 
215 1 1 -0.00388838 -0.0328232 0.011136 0 0 0 0.0642049 0.0913126 -0.0488178 0.122204 -0.369293 -0.691392 4.10271 -4.04773 4.91177 0.004 300 0 
198 1 1 0.0215846 -0.0309052 0.0115642 0 0 0 0 0 -0.496077 0 0 -0.0210391 0 0 0 0.004 300 0 
118 1 1 -0.028476 -0.0262926 0.0112707 0 0 0 -0.012039 -0.221334 -0.100416 0 0 -0.0210391 14.2269 -0.773844 -9.28297e-15 0.004 300 0 
33 1 1 -0.00822314 -0.0188614 0.0110286 0 0 0 0.208821 -0.158645 -0.138903 0.0649668 -0.313308 0.382351 -1.28767 6.33382 6.54884 0.004 300 0 
5 1 1 0.011455 -0.015743 0.0112793 0 0 0 0.0239345 -0.0343296 -0.404016 0 0 -0.0210391 -3.10668 6.9257 -0.729214 0.004 300 0 
19 1 1 -0.0059362 -0.0102698 0.0107923 0 0 0 0.065761 0.0630853 -0.118613 0.385746 -0.245644 1.00694 -3.15434 4.66848 2.69064 0.004 300 0 
96 1 1 0.0194186 -0.0138581 0.0112582 0 0 0 -0.156076 -0.0182323 -0.105045 -0.0338765 -0.0126362 0.0625573 11.0213 -4.13872 4.21435 0.004 300 0 
37 1 1 0.0366837 -0.0101709 0.0117931 0 0 0 -0.122188 -0.136773 -0.317585 -0.0377754 -0.0515736 -0.175317 -11.7256 4.2604 2.02676 0.004 300 0 
18 1 1 0.00462223 -0.00562348 0.0128503 0 0 0 0.20901 0.214701 -0.037597 0 0 -0.0210391 -14.5046 11.7031 2.85236 0.004 300 0 
200 1 1 0.0134316 -0.00694677 0.0108355 0 0 0 0.182431 -0.15215 -0.161295 0.295163 -0.0988074 0.532734 -1.62945 14.6193 1.84582 0.004 300 0 
176 1 1 -0.035665 -0.00406417 0.0116624 0 0 0 -0.158693 0.0426137 -0.0826569 -0.0324954 0.000519806 -0.0374856 1.30602 -5.85646 1.0697 0.004 300 0 
117 1 1 0.0181354 -0.0367579 0.0161672 0 0 0 0 0 -0.496077 0 0 -0.0210391 0 0 0 0.004 300 0 
169 1 1 -0.0212708 -0.0320429 0.0158126 0 0 0 0 0 -0.496077 0 0 -0.0210391 0 0 0 0.004 300 0 
23 1 1 0.00811441 -0.0322122 0.0145021 0 0 0 -0.084536 0.0858449 -0.499491 0 0 -0.0210391 -3.14609 0.611328 -2.7858 0.004 300 0 
188 1 1 -0.00883596 -0.0290573 0.0158797 0 0 0 -0.0491539 0.0391573 -0.441566 -0.319602 0.251077 0.32146 -1.3162 -2.41572 0.548901 0.004 300 0 
75 1 1 0.0299583 -0.0255452 0.0173299 0 0 0 -0.0258601 -0.0121124 -0.213916 0 0 -0.0210391 -20.4356 1.5496 -3.45011 0.004 300 0 
214 1 1 -0.0336715 -0.0205941 0.016121 0 0 0 0 0 -0.496077 0 0 -0.0210391 0 0 0 0.004 300 0 
101 1 1 -0.0158083 -0.0237592 0.0153187 0 0 0 0.0497123 -0.185272 -0.444911 0 0 -0.0210391 4.72763 2.21098 3.41362 0.004 300 0 
179 1 1 0.00596456 -0.0226172 0.015413 0 0 0 0.214497 0.040008 -0.206275 0 0 -0.0210391 -8.78504 4.80014 5.83896 0.004 300 0 
91 1 1 0.0151913 -0.0220169 0.0146829 0 0 0 0.110732 -0.0978265 -0.0880985 0 0 -0.0210391 -6.41797 9.81736 -9.73123 0.004 300 0 
11 1 1 0.0229206 -0.0209181 0.0169041 0 0 0 0.180341 0.0364629 -0.10011 0 0 -0.0210391 -7.57512 -4.77867 -5.85525 0.004 300 0 
53 1 1 -0.0264161 -0.0152393 0.012196 0 0 0 -0.00401934 0.000172401 -0.496989 -0.0186755 0.000845378 -0.0254148 0.00895577 -0.112863 -0.0607299 0.004 300 0 
10 1 1 0.00218765 -0.015563 0.0180824 0 0 0 0.0775276 -0.0364419 -0.000833005 0 0 -0.0210391 12.6087 -5.08908 -2.34 0.004 300 0 
167 1 1 0.0362587 -0.0176944 0.0167041 0 0 0 0 0 -0.496077 0 0 -0.0210391 0 0 0 0.004 300 0 
102 1 1 -0.0361499 -0.0130679 0.0145566 0 0 0 0 0 -0.496077 0 0 -0.0210391 0 0 0 0.004 300 0 
220 1 1 -0.0187497 -0.0157914 0.0143455 0 0 0 -0.0732931 -0.103677 -0.337003 0.0230471 -0.0105419 -0.0226176 3.65456 -4.5 -2.76579 0.004 300 0 
139 1 1 -0.0104612 -0.0144543 0.0174542 0 0 0 -0.0551738 0.162008 -0.249203 0 0 -0.0210391 0.652695 -7.91445 5.33756 0.004 300 0 
136 1 1 0.0280291 -0.00982821 0.0124158 0 0 0 0 0 -0.496077 0 0 -0.0210391 0 0 0 0.004 300 0 
119 1 1 -0.0283865 -0.00421622 0.0149023 0 0 0 0.00897363 -0.000125926 -0.491317 0.0324954 -0.000519806 -0.00459263 0.0177689 0.314704 -0.025171 0.004 300 0 
223 1 1 0.00558924 -0.0401238 0.0176817 0 0 0 -0.203137 -0.022949 -0.231879 0 0 -0.0210391 -2.49348 -9.70742 -2.7567 0.004 300 0 
185 1 1 -0.00844665 -0.0389025 0.0174135 0 0 0 0 0 -0.496077 0 0 -0.0210391 0 0 0 0.004 300 0 
152 1 1 -0.00115319 -0.0383214 0.0219628 0 0 0 0 0 -0.496077 0 0 -0.0210391 0 0 0 0.004 300 0 
47 1 1 0.000311235 -0.0304381 0.0173592 0 0 0 0.0151134 0.00931394 -0.470018 0.197399 0.118216 0.306815 -0.313864 1.15711 -0.231463 0.004 300 0 
153 1 1 0.00915769 -0.0280229 0.0215103 0 0 0 0.0122137 0.108254 -0.337898 0 0 -0.0210391 4.47958 3.31777 -2.61655 0.004 300 0 
9 1 1 -0.0235297 -0.0246558 0.0182471 0 0 0 0 0 -0.496077 0 0 -0.0210391 0 0 0 0.004 300 0 
40 1 1 -0.00404292 -0.0221577 0.0176475 0 0 0 0 0 -0.496077 0 0 -0.0210391 0 0 0 0.004 300 0 
71 1 1 -0.029788 -0.0106767 0.0206155 0 0 0 0 0 -0.496077 0 0 -0.0210391 0 0 0 0.004 300 0 
187 1 1 0.0115285 -0.0121301 0.0184293 0 0 0 0.0165331 0.151855 -0.151703 0 0 -0.0210391 -9.3173 -6.29268 3.22922 0.004 300 0 
84 1 1 0.0202748 -0.0130436 0.0202141 0 0 0 0 0 -0.496077 0 0 -0.0210391 0 0 0 0.004 300 0 
62 1 1 -0.0214804 -0.0092256 0.0179367 0 0 0 -0.0372675 0.0787011 -0.444757 -0.00437163 0.00969652 -0.0150849 -2.73117 -0.323511 -1.48697 0.004 300 0 
146 1 1 -0.014044 -0.00588415 0.0171617 0 0 0 0 0 -0.496077 0 0 -0.0210391 0 0 0 0.004 300 0 
79 1 1 -0.00667555 -0.00546899 0.021564 0 0 0 0 0 -0.496077 0 0 -0.0210391 0 0 0 0.004 300 0 
63 1 1 0.0387264 -0.007503 0.0188926 0 0 0 0.105841 0.145713 -0.0319798 0.0377754 0.0515736 0.133239 -10.7306 10.9836 -1.0003 0.004 300 0 
197 1 1 -0.0406417 -0.00494165 0.0180555 0 0 0 0 0 -0.496077 0 0 -0.0210391 0 0 0 0.004 300 0 
31 1 1 0.0140979 -0.00389775 0.0191497 0 0 0 0.0867799 -0.0787505 -0.18833 0 0 -0.0210391 -12.742 -7.17557 6.14018 0.004 300 0 
156 1 1 0.0276013 -0.0048372 0.0189896 0 0 0 0 0 -0.496077 0 0 -0.0210391 0 0 0 0.004 300 0 
120 1 1 0.0120735 -0.0378634 0.0240097 0 0 0 0 0 -0.496077 0 0 -0.0210391 0 0 0 0.004 300 0 
58 1 1 -0.0171314 -0.0311056 0.0230365 0 0 0 0 0 -0.496077 0 0 -0.0210391 0 0 0 0.004 300 0 
89 1 1 -0.00938307 -0.0331163 0.0252099 0 0 0 0 0 -0.496077 0 0 -0.0210391 0 0 0 0.004 300 0 
125 1 1 0.000754363 -0.0282112 0.0254071 0 0 0 0 0 -0.496077 0 0 -0.0210391 0 0 0 0.004 300 0 
41 1 1 0.017092 -0.0299784 0.0229032 0 0 0 0 0 -0.496077 0 0 -0.0210391 0 0 0 0.004 300 0 
46 1 1 -0.0307477 -0.0205671 0.0244534 0 0 0 0 0 -0.496077 0 0 -0.0210391 0 0 0 0.004 300 0 
193 1 1 -0.00914642 -0.0244815 0.0242836 0 0 0 0 0 -0.496077 0 0 -0.0210391 0 0 0 0.004 300 0 
178 1 1 0.0275218 -0.0230385 0.0254588 0 0 0 -0.0832563 0.0801639 -0.155466 0 0 -0.0210391 -2.36793 -5.38357 0.668287 0.004 300 0 
4 1 1 -0.0202944 -0.0167009 0.0223528 0 0 0 0 0 -0.496077 0 0 -0.0210391 0 0 0 0.004 300 0 
20 1 1 -0.00788694 -0.0154263 0.0253051 0 0 0 0 0 -0.496077 0 0 -0.0210391 0 0 0 0.004 300 0 
54 1 1 0.00927504 -0.0196648 0.0228915 0 0 0 0 0 -0.496077 0 0 -0.0210391 0 0 0 0.004 300 0 
131 1 1 0.0331208 -0.0169471 0.0247709 0 0 0 0 0 -0.496077 0 0 -0.0210391 0 0 0 0.004 300 0 
177 1 1 -0.0368194 -0.0141117 0.0246178 0 0 0 0 0 -0.496077 0 0 -0.0210391 0 0 0 0.004 300 0 
57 1 1 0.00130303 -0.00746357 0.0250193 0 0 0 0 0 -0.496077 0 0 -0.0210391 0 0 0 0.004 300 0 
184 1 1 -0.0143597 -0.00461207 0.0253107 0 0 0 0 0 -0.496077 0 0 -0.0210391 0 0 0 0.004 300 0 
222 1 1 -0.00274385 -0.0404577 0.029986 0 0 0 0 0 -0.496077 0 0 -0.0210391 0 0 0 0.004 300 0 
150 1 1 -0.0169768 -0.0369127 0.0295936 0 0 0 0 0 -0.496077 0 0 -0.0210391 0 0 0 0.004 300 0 
2 1 1 0.00454996 -0.0369502 0.0305964 0 0 0 0 0 -0.496077 0 0 -0.0210391 0 0 0 0.004 300 0 
13 1 1 -0.024382 -0.0315284 0.0294355 0 0 0 0 0 -0.496077 0 0 -0.0210391 0 0 0 0.004 300 0 
48 1 1 0.0226184 -0.0287599 0.0305893 0 0 0 0 0 -0.496077 0 0 -0.0210391 0 0 0 0.004 300 0 
55 1 1 0.00627037 -0.0244571 0.0319627 0 0 0 0 0 -0.496077 0 0 -0.0210391 0 0 0 0.004 300 0 
210 1 1 0.0351552 -0.0210086 0.0315452 0 0 0 0 0 -0.496077 0 0 -0.0210391 0 0 0 0.004 300 0 
168 1 1 -0.024632 -0.0177153 0.0320215 0 0 0 0 0 -0.496077 0 0 -0.0210391 0 0 0 0.004 300 0 
104 1 1 -0.0155504 -0.0199324 0.0279506 0 0 0 0 0 -0.496077 0 0 -0.0210391 0 0 0 0.004 300 0 
45 1 1 0.0021908 -0.017129 0.0306843 0 0 0 0 0 -0.496077 0 0 -0.0210391 0 0 0 0.004 300 0 
112 1 1 0.0170878 -0.0197797 0.0299131 0 0 0 0 0 -0.496077 0 0 -0.0210391 0 0 0 0.004 300 0 
82 1 1 0.0257473 -0.0151343 0.0301369 0 0 0 0 0 -0.496077 0 0 -0.0210391 0 0 0 0.004 300 0 
135 1 1 -0.0364221 -0.00545267 0.0287861 0 0 0 0 0 -0.496077 0 0 -0.0210391 0 0 0 0.004 300 0 
130 1 1 -0.0285934 -0.00735366 0.0287044 0 0 0 0 0 -0.496077 0 0 -0.0210391 0 0 0 0.004 300 0 
7 1 1 -0.0206521 -0.007209 0.0309865 0 0 0 0 0 -0.496077 0 0 -0.0210391 0 0 0 0.004 300 0 
103 1 1 0.0152151 -0.00750632 0.0275209 0 0 0 0 0 -0.496077 0 0 -0.0210391 0 0 0 0.004 300 0 
157 1 1 0.0321154 -0.00565084 0.0276295 0 0 0 0 0 -0.496077 0 0 -0.0210391 0 0 0 0.004 300 0 
208 1 1 0.0241367 -0.00472444 0.0276158 0 0 0 0 0 -0.496077 0 0 -0.0210391 0 0 0 0.004 300 0 
107 1 1 -0.0108993 -0.0394374 0.0347585 0 0 0 0 0 -0.496077 0 0 -0.0210391 0 0 0 0.004 300 0 
109 1 1 0.0177821 -0.0359031 0.0356826 0 0 0 0 0 -0.496077 0 0 -0.0210391 0 0 0 0.004 300 0 
151 1 1 -0.00131325 -0.0334104 0.034795 0 0 0 0 0 -0.496077 0 0 -0.0210391 0 0 0 0.004 300 0 
6 1 1 -0.0150748 -0.0288508 0.0329194 0 0 0 0 0 -0.496077 0 0 -0.0210391 0 0 0 0.004 300 0 
160 1 1 -0.0342821 -0.0220634 0.035278 0 0 0 0 0 -0.496077 0 0 -0.0210391 0 0 0 0.004 300 0 
80 1 1 -0.00806454 -0.0228854 0.033136 0 0 0 0 0 -0.496077 0 0 -0.0210391 0 0 0 0.004 300 0 
34 1 1 0.0277383 -0.0234289 0.0340472 0 0 0 0 0 -0.496077 0 0 -0.0210391 0 0 0 0.004 300 0 
202 1 1 -0.0130491 -0.0156053 0.0354066 0 0 0 0 0 -0.496077 0 0 -0.0210391 0 0 0 0.004 300 0 
43 1 1 -0.0337135 -0.0135999 0.0352432 0 0 0 0 0 -0.496077 0 0 -0.0210391 0 0 0 0.004 300 0 
186 1 1 -0.000962497 -0.0108395 0.0346427 0 0 0 0 0 -0.496077 0 0 -0.0210391 0 0 0 0.004 300 0 
159 1 1 0.00720896 -0.0120202 0.0361491 0 0 0 0 0 -0.496077 0 0 -0.0210391 0 0 0 0.004 300 0 
180 1 1 0.0338817 -0.0125853 0.0323189 0 0 0 0 0 -0.496077 0 0 -0.0210391 0 0 0 0.004 300 0 
145 1 1 -0.00792866 -0.00596927 0.0327087 0 0 0 0 0 -0.496077 0 0 -0.0210391 0 0 0 0.004 300 0 
60 1 1 0.0258234 -0.0053373 0.0354265 0 0 0 0 0 -0.496077 0 0 -0.0210391 0 0 0 0.004 300 0 
106 1 1 0.00416297 -0.00400936 0.0331633 0 0 0 0 0 -0.496077 0 0 -0.0210391 0 0 0 0.004 300 0 
93 1 1 0.0100122 -0.0350836 0.0407425 0 0 0 0 0 -0.496077 0 0 -0.0210391 0 0 0 0.004 300 0 
64 1 1 0.0227838 -0.0334236 0.0415569 0 0 0 0 0 -0.496077 0 0 -0.0210391 0 0 0 0.004 300 0 
108 1 1 -0.0247672 -0.0289176 0.0376294 0 0 0 0 0 -0.496077 0 0 -0.0210391 0 0 0 0.004 300 0 
88 1 1 0.0112984 -0.026631 0.0387194 0 0 0 0 0 -0.496077 0 0 -0.0210391 0 0 0 0.004 300 0 
132 1 1 -0.0175802 -0.0226389 0.037386 0 0 0 0 0 -0.496077 0 0 -0.0210391 0 0 0 0.004 300 0 
86 1 1 -0.00363571 -0.0201569 0.0393451 0 0 0 0 0 -0.496077 0 0 -0.0210391 0 0 0 0.004 300 0 
72 1 1 0.0199847 -0.0207325 0.0413439 0 0 0 0 0 -0.496077 0 0 -0.0210391 0 0 0 0.004 300 0 
52 1 1 -0.0284932 -0.0199694 0.0405385 0 0 0 0 0 -0.496077 0 0 -0.0210391 0 0 0 0.004 300 0 
1 1 1 0.0328584 -0.0172277 0.0397457 0 0 0 0 0 -0.496077 0 0 -0.0210391 0 0 0 0.004 300 0 
29 1 1 -0.0180767 -0.01021 0.041861 0 0 0 0 0 -0.496077 0 0 -0.0210391 0 0 0 0.004 300 0 
121 1 1 -0.00856102 -0.0100226 0.0417026 0 0 0 0 0 -0.496077 0 0 -0.0210391 0 0 0 0.004 300 0 
42 1 1 0.0198251 -0.012312 0.0372306 0 0 0 0 0 -0.496077 0 0 -0.0210391 0 0 0 0.004 300 0 
87 1 1 -0.0332252 -0.00543356 0.0391057 0 0 0 0 0 -0.496077 0 0 -0.0210391 0 0 0 0.004 300 0 
190 1 1 -0.0258626 -0.00856344 0.0407194 0 0 0 0 0 -0.496077 0 0 -0.0210391 0 0 0 0.004 300 0 
164 1 1 0.0393979 -0.00754613 0.0374787 0 0 0 0 0 -0.496077 0 0 -0.0210391 0 0 0 0.004 300 0 
191 1 1 0.0168273 -0.00433586 0.0373253 0 0 0 0 0 -0.496077 0 0 -0.0210391 0 0 0 0.004 300 0 
105 1 1 -0.0170678 -0.0366525 0.0437789 0 0 0 0 0 -0.496077 0 0 -0.0210391 0 0 0 0.004 300 0 
199 1 1 -0.00859659 -0.0389231 0.0425082 0 0 0 0 0 -0.496077 0 0 -0.0210391 0 0 0 0.004 300 0 
142 1 1 -0.000740947 -0.0390462 0.044175 0 0 0 0 0 -0.496077 0 0 -0.0210391 0 0 0 0.004 300 0 
174 1 1 -0.0243978 -0.0292841 0.0463385 0 0 0 0 0 -0.496077 0 0 -0.0210391 0 0 0 0.004 300 0 
85 1 1 -0.0113263 -0.0283043 0.0427593 0 0 0 0 0 -0.496077 0 0 -0.0210391 0 0 0 0.004 300 0 
32 1 1 -0.00349762 -0.029758 0.0466519 0 0 0 0 0 -0.496077 0 0 -0.0210391 0 0 0 0.004 300 0 
204 1 1 -0.0142171 -0.0206466 0.0458945 0 0 0 0 0 -0.496077 0 0 -0.0210391 0 0 0 0.004 300 0 
196 1 1 0.00377494 -0.0248288 0.0454094 0 0 0 0 0 -0.496077 0 0 -0.0210391 0 0 0 0.004 300 0 
49 1 1 0.0306298 -0.0247486 0.0424645 0 0 0 0 0 -0.496077 0 0 -0.0210391 0 0 0 0.004 300 0 
173 1 1 -0.0372427 -0.0167241 0.0468289 0 0 0 0 0 -0.496077 0 0 -0.0210391 0 0 0 0.004 300 0 
129 1 1 0.0114064 -0.0191982 0.0428984 0 0 0 0 0 -0.496077 0 0 -0.0210391 0 0 0 0.004 300 0 
92 1 1 0.0372553 -0.0123787 0.0452541 0 0 0 0 0 -0.496077 0 0 -0.0210391 0 0 0 0.004 300 0 
78 1 1 0.00429639 -0.00779227 0.0424542 0 0 0 0 0 -0.496077 0 0 -0.0210391 0 0 0 0.004 300 0 
56 1 1 0.0113863 -0.00736909 0.0465339 0 0 0 0 0 -0.496077 0 0 -0.0210391 0 0 0 0.004 300 0 
206 1 1 -0.0142955 -0.00461666 0.046816 0 0 0 0 0 -0.496077 0 0 -0.0210391 0 0 0 0.004 300 0 
133 1 1 0.0336471 -0.00412138 0.0452163 0 0 0 0 0 -0.496077 0 0 -0.0210391 0 0 0 0.004 300 0 
114 1 1 0.0121005 -0.0359802 0.0504931 0 0 0 0 0 -0.496077 0 0 -0.0210391 0 0 0 0.004 300 0 
22 1 1 -0.0306947 -0.0253641 0.0518214 0 0 0 0 0 -0.496077 0 0 -0.0210391 0 0 0 0.004 300 0 
137 1 1 0.015855 -0.0296375 0.0473371 0 0 0 0 0 -0.496077 0 0 -0.0210391 0 0 0 0.004 300 0 
154 1 1 0.0260722 -0.0298998 0.0481128 0 0 0 0 0 -0.496077 0 0 -0.0210391 0 0 0 0.004 300 0 
70 1 1 -0.0215908 -0.0209089 0.049712 0 0 0 0 0 -0.496077 0 0 -0.0210391 0 0 0 0.004 300 0 
209 1 1 0.0185066 -0.0224939 0.0505859 0 0 0 0 0 -0.496077 0 0 -0.0210391 0 0 0 0.004 300 0 
147 1 1 -0.00706235 -0.0159289 0.047613 0 0 0 0 0 -0.496077 0 0 -0.0210391 0 0 0 0.004 300 0 
28 1 1 0.00148936 -0.0166465 0.0472263 0 0 0 0 0 -0.496077 0 0 -0.0210391 0 0 0 0.004 300 0 
97 1 1 0.0294205 -0.0174925 0.0492757 0 0 0 0 0 -0.496077 0 0 -0.0210391 0 0 0 0.004 300 0 
50 1 1 -0.0303183 -0.0126892 0.0471879 0 0 0 0 0 -0.496077 0 0 -0.0210391 0 0 0 0.004 300 0 
90 1 1 -0.0240898 -0.00620691 0.0511233 0 0 0 0 0 -0.496077 0 0 -0.0210391 0 0 0 0.004 300 0 
111 1 1 -0.00619357 -0.00515209 0.0485245 0 0 0 0 0 -0.496077 0 0 -0.0210391 0 0 0 0.004 300 0 
189 1 1 0.00135111 -0.00843191 0.0500992 0 0 0 0 0 -0.496077 0 0 -0.0210391 0 0 0 0.004 300 0 
44 1 1 0.0233973 -0.00830079 0.0479695 0 0 0 0 0 -0.496077 0 0 -0.0210391 0 0 0 0.004 300 0 
192 1 1 -0.0369628 -0.0040115 0.0481542 0 0 0 0 0 -0.496077 0 0 -0.0210391 0 0 0 0.004 300 0 
127 1 1 -0.00717215 -0.0386603 0.0531856 0 0 0 0 0 -0.496077 0 0 -0.0210391 0 0 0 0.004 300 0 
172 1 1 0.00686293 -0.0398758 0.0552984 0 0 0 0 0 -0.496077 0 0 -0.0210391 0 0 0 0.004 300 0 
38 1 1 -0.0160069 -0.0318006 0.0544386 0 0 0 0 0 -0.496077 0 0 -0.0210391 0 0 0 0.004 300 0 
128 1 1 0.00290677 -0.0304538 0.0546053 0 0 0 0 0 -0.496077 0 0 -0.0210391 0 0 0 0.004 300 0 
36 1 1 -0.00723454 -0.0229837 0.0541828 0 0 0 0 0 -0.496077 0 0 -0.0210391 0 0 0 0.004 300 0 
3 1 1 0.029045 -0.0226919 0.055491 0 0 0 0 0 -0.496077 0 0 -0.0210391 0 0 0 0.004 300 0 
16 1 1 0.0148554 -0.0153529 0.055891 0 0 0 0 0 -0.496077 0 0 -0.0210391 0 0 0 0.004 300 0 
81 1 1 -0.033408 -0.011318 0.0565101 0 0 0 0 0 -0.496077 0 0 -0.0210391 0 0 0 0.004 300 0 
14 1 1 -0.0171883 -0.0144962 0.0556392 0 0 0 0 0 -0.496077 0 0 -0.0210391 0 0 0 0.004 300 0 
68 1 1 -0.00300839 -0.0135082 0.0546629 0 0 0 0 0 -0.496077 0 0 -0.0210391 0 0 0 0.004 300 0 
205 1 1 0.026824 -0.0116688 0.0558475 0 0 0 0 0 -0.496077 0 0 -0.0210391 0 0 0 0.004 300 0 
66 1 1 -0.00998512 -0.00747318 0.0557181 0 0 0 0 0 -0.496077 0 0 -0.0210391 0 0 0 0.004 300 0 
212 1 1 0.0182997 -0.00632727 0.0547477 0 0 0 0 0 -0.496077 0 0 -0.0210391 0 0 0 0.004 300 0 
67 1 1 0.0386645 -0.00572211 0.056201 0 0 0 0 0 -0.496077 0 0 -0.0210391 0 0 0 0.004 300 0 
181 1 1 -0.0405828 -0.00468592 0.0567073 0 0 0 0 0 -0.496077 0 0 -0.0210391 0 0 0 0.004 300 0 
123 1 1 0.0295345 -0.00457092 0.0530221 0 0 0 0 0 -0.496077 0 0 -0.0210391 0 0 0 0.004 300 0 
143 1 1 -0.00444106 -0.037913 0.0618622 0 0 0 0 0 -0.496077 0 0 -0.0210391 0 0 0 0.004 300 0 
110 1 1 -0.0244034 -0.031257 0.0574015 0 0 0 0 0 -0.496077 0 0 -0.0210391 0 0 0 0.004 300 0 
35 1 1 0.0219648 -0.0316398 0.0576698 0 0 0 0 0 -0.496077 0 0 -0.0210391 0 0 0 0.004 300 0 
134 1 1 -0.0199849 -0.0256904 0.0618022 0 0 0 0 0 -0.496077 0 0 -0.0210391 0 0 0 0.004 300 0 
182 1 1 -0.00371177 -0.0293425 0.0602755 0 0 0 0 0 -0.496077 0 0 -0.0210391 0 0 0 0.004 300 0 
149 1 1 0.0143022 -0.028882 0.0578313 0 0 0 0 0 -0.496077 0 0 -0.0210391 0 0 0 0.004 300 0 
122 1 1 -0.0122626 -0.0212512 0.0611625 0 0 0 0 0 -0.496077 0 0 -0.0210391 0 0 0 0.004 300 0 
25 1 1 0.00732024 -0.0218591 0.0578134 0 0 0 0 0 -0.496077 0 0 -0.0210391 0 0 0 0.004 300 0 
218 1 1 -0.036247 -0.0190156 0.0591621 0 0 0 0 0 -0.496077 0 0 -0.0210391 0 0 0 0.004 300 0 
51 1 1 -0.0279523 -0.0199018 0.0592618 0 0 0 0 0 -0.496077 0 0 -0.0210391 0 0 0 0.004 300 0 
138 1 1 -0.00420857 -0.0191922 0.0610388 0 0 0 0 0 -0.496077 0 0 -0.0210391 0 0 0 0.004 300 0 
99 1 1 0.0353376 -0.0177786 0.0591175 0 0 0 0 0 -0.496077 0 0 -0.0210391 0 0 0 0.004 300 0 
203 1 1 0.00403326 -0.0139766 0.0598333 0 0 0 0 0 -0.496077 0 0 -0.0210391 0 0 0 0.004 300 0 
175 1 1 -0.0233941 -0.00982385 0.0597724 0 0 0 0 0 -0.496077 0 0 -0.0210391 0 0 0 0.004 300 0 
201 1 1 -0.0157093 -0.00592272 0.0616896 0 0 0 0 0 -0.496077 0 0 -0.0210391 0 0 0 0.004 300 0 
165 1 1 -0.00309869 -0.00738197 0.0608531 0 0 0 0 0 -0.496077 0 0 -0.0210391 0 0 0 0.004 300 0 
27 1 1 0.00509447 -0.00612366 0.0580049 0 0 0 0 0 -0.496077 0 0 -0.0210391 0 0 0 0.004 300 0 
141 1 1 0.013175 -0.00609677 0.0614454 0 0 0 0 0 -0.496077 0 0 -0.0210391 0 0 0 0.004 300 0 
115 1 1 0.0246668 -0.00543012 0.0603947 0 0 0 0 0 -0.496077 0 0 -0.0210391 0 0 0 0.004 300 0 
126 1 1 -0.0165589 -0.0350025 0.062571 0 0 0 0 0 -0.496077 0 0 -0.0210391 0 0 0 0.004 300 0 
61 1 1 0.0107614 -0.0387269 0.0625756 0 0 0 0 0 -0.496077 0 0 -0.0210391 0 0 0 0.004 300 0 
216 1 1 0.00350099 -0.0319717 0.0626784 0 0 0 0 0 -0.496077 0 0 -0.0210391 0 0 0 0.004 300 0 
166 1 1 0.0245359 -0.0252593 0.062979 0 0 0 0 0 -0.496077 0 0 -0.0210391 0 0 0 0.004 300 0 
94 1 1 0.0204456 -0.0178454 0.0623061 0 0 0 0 0 -0.496077 0 0 -0.0210391 0 0 0 0.004 300 0 
73 1 1 0.0308992 -0.0109001 0.0628217 0 0 0 0 0 -0.496077 0 0 -0.0210391 0 0 0 0.004 300 0 
427 1 1 -0.0154239 -0.0375833 0.0716449 0 0 0 0 0 -0.496077 0 0 -0.0210391 0 0 0 0.004 300 0 
334 1 1 -0.00170944 -0.032788 0.0716419 0 0 0 0 0 -0.496077 0 0 -0.0210391 0 0 0 0.004 300 0 
399 1 1 0.0093429 -0.0344159 0.0713276 0 0 0 0 0 -0.496077 0 0 -0.0210391 0 0 0 0.004 300 0 
317 1 1 0.000562334 -0.0219228 0.0716837 0 0 0 0 0 -0.496077 0 0 -0.0210391 0 0 0 0.004 300 0 
246 1 1 -0.0337032 -0.0169722 0.0713397 0 0 0 0 0 -0.496077 0 0 -0.0210391 0 0 0 0.004 300 0 
421 1 1 -0.00034683 -0.0120832 0.0711524 0 0 0 0 0 -0.496077 0 0 -0.0210391 0 0 0 0.004 300 0 
381 1 1 -0.0250076 -0.0239068 0.0725906 0 0 0 0 0 -0.496077 0 0 -0.0210391 0 0 0 0.004 300 0 
330 1 1 0.0322365 -0.0229992 0.0723105 0 0 0 0 0 -0.496077 0 0 -0.0210391 0 0 0 0.004 300 0 
401 1 1 0.00766962 -0.0108462 0.0721262 0 0 0 0 0 -0.496077 0 0 -0.0210391 0 0 0 0.004 300 0 
374 1 1 0.0224654 -0.00976717 0.0722759 0 0 0 0 0 -0.496077 0 0 -0.0210391 0 0 0 0.004 300 0 
347 1 1 -0.0165634 -0.0281746 0.0734681 0 0 0 0 0 -0.496077 0 0 -0.0210391 0 0 0 0.004 300 0 
390 1 1 -0.00854704 -0.0275508 0.0738952 0 0 0 0 0 -0.496077 0 0 -0.0210391 0 0 0 0.004 300 0 
388 1 1 -0.0211833 -0.0164286 0.0733617 0 0 0 0 0 -0.496077 0 0 -0.0210391 0 0 0 0.004 300 0 
304 1 1 -0.0111478 -0.0133094 0.0734823 0 0 0 0 0 -0.496077 0 0 -0.0210391 0 0 0 0.004 300 0 
431 1 1 -0.00964201 -0.00411501 0.0736587 0 0 0 0 0 -0.496077 0 0 -0.0210391 0 0 0 0.004 300 0 
443 1 1 -0.00194595 -0.0403302 0.0748346 0 0 0 0 0 -0.496077 0 0 -0.0210391 0 0 0 0.004 300 0 
271 1 1 0.0195015 -0.0313019 0.0746421 0 0 0 0 0 -0.496077 0 0 -0.0210391 0 0 0 0.004 300 0 
396 1 1 -0.0274426 -0.0113254 0.0745799 0 0 0 0 0 -0.496077 0 0 -0.0210391 0 0 0 0.004 300 0 
309 1 1 0.0371696 -0.012632 0.0741176 0 0 0 0 0 -0.496077 0 0 -0.0210391 0 0 0 0.004 300 0 
366 1 1 -0.0360741 -0.00635601 0.0745193 0 0 0 0 0 -0.496077 0 0 -0.0210391 0 0 0 0.004 300 0 
297 1 1 -0.00738233 -0.00492934 0.137955 0 0 0 0 0 -0.496077 0 0 -0.0210391 0 0 0 0.004 300 0 
429 1 1 0.0400995 -0.00628146 0.137859 0 0 0 0 0 -0.496077 0 0 -0.0210391 0 0 0 0.004 300 0 
224 1 1 -0.0299591 -0.008892 0.137206 0 0 0 0 0 -0.496077 0 0 -0.0210391 0 0 0 0.004 300 0 
288 1 1 -0.0209745 -0.0167557 0.137602 0 0 0 0 0 -0.496077 0 0 -0.0210391 0 0 0 0.004 300 0 
265 1 1 -0.0332426 -0.0165709 0.137774 0 0 0 0 0 -0.496077 0 0 -0.0210391 0 0 0 0.004 300 0 
343 1 1 0.024321 -0.0306918 0.13773 0 0 0 0 0 -0.496077 0 0 -0.0210391 0 0 0 0.004 300 0 
268 1 1 0.00674225 -0.0190316 0.133924 0 0 0 0 0 -0.496077 0 0 -0.0210391 0 0 0 0.004 300 0 
354 1 1 -0.0136118 -0.0194119 0.13309 0 0 0 0 0 -0.496077 0 0 -0.0210391 0 0 0 0.004 300 0 
364 1 1 0.0320026 -0.0085333 0.135232 0 0 0 0 0 -0.496077 0 0 -0.0210391 0 0 0 0.004 300 0 
232 1 1 0.00379299 -0.0081505 0.133043 0 0 0 0 0 -0.496077 0 0 -0.0210391 0 0 0 0.004 300 0 
417 1 1 -0.00126049 -0.0399987 0.137074 0 0 0 0 0 -0.496077 0 0 -0.0210391 0 0 0 0.004 300 0 
258 1 1 -0.0149935 -0.0205197 0.0770238 0 0 0 0 0 -0.496077 0 0 -0.0210391 0 0 0 0.004 300 0 
441 1 1 0.021063 -0.00490798 0.136359 0 0 0 0 0 -0.496077 0 0 -0.0210391 0 0 0 0.004 300 0 
320 1 1 -0.00540202 -0.0133661 0.134599 0 0 0 0 0 -0.496077 0 0 -0.0210391 0 0 0 0.004 300 0 
442 1 1 0.0293554 -0.0248123 0.133417 0 0 0 0 0 -0.496077 0 0 -0.0210391 0 0 0 0.004 300 0 
338 1 1 0.0370728 -0.0158936 0.136626 0 0 0 0 0 -0.496077 0 0 -0.0210391 0 0 0 0.004 300 0 
375 1 1 0.0122114 -0.00430823 0.136292 0 0 0 0 0 -0.496077 0 0 -0.0210391 0 0 0 0.004 300 0 
432 1 1 0.0198293 -0.0218081 0.136562 0 0 0 0 0 -0.496077 0 0 -0.0210391 0 0 0 0.004 300 0 
377 1 1 -0.00197597 -0.0226033 0.136684 0 0 0 0 0 -0.496077 0 0 -0.0210391 0 0 0 0.004 300 0 
291 1 1 -0.0185478 -0.00860236 0.075622 0 0 0 0 0 -0.496077 0 0 -0.0210391 0 0 0 0.004 300 0 
403 1 1 -0.0384782 -0.00431905 0.133283 0 0 0 0 0 -0.496077 0 0 -0.0210391 0 0 0 0.004 300 0 
384 1 1 0.0306318 -0.00833459 0.0762261 0 0 0 0 0 -0.496077 0 0 -0.0210391 0 0 0 0.004 300 0 
305 1 1 0.0151231 -0.0156179 0.132849 0 0 0 0 0 -0.496077 0 0 -0.0210391 0 0 0 0.004 300 0 
371 1 1 -0.009764 -0.0392806 0.0770745 0 0 0 0 0 -0.496077 0 0 -0.0210391 0 0 0 0.004 300 0 
237 1 1 0.00341492 -0.0352376 0.0784739 0 0 0 0 0 -0.496077 0 0 -0.0210391 0 0 0 0.004 300 0 
369 1 1 0.0122555 -0.0380275 0.0793572 0 0 0 0 0 -0.496077 0 0 -0.0210391 0 0 0 0.004 300 0 
395 1 1 -0.0235575 -0.0333045 0.0786953 0 0 0 0 0 -0.496077 0 0 -0.0210391 0 0 0 0.004 300 0 
312 1 1 0.0111055 -0.0271892 0.0779009 0 0 0 0 0 -0.496077 0 0 -0.0210391 0 0 0 0.004 300 0 
351 1 1 -0.0326221 -0.0227365 0.0795746 0 0 0 0 0 -0.496077 0 0 -0.0210391 0 0 0 0.004 300 0 
300 1 1 -0.00719157 -0.0218181 0.0799867 0 0 0 0 0 -0.496077 0 0 -0.0210391 0 0 0 0.004 300 0 
362 1 1 0.0233528 -0.0223483 0.0778398 0 0 0 0 0 -0.496077 0 0 -0.0210391 0 0 0 0.004 300 0 
365 1 1 0.0047878 -0.0182196 0.0793377 0 0 0 0 0 -0.496077 0 0 -0.0210391 0 0 0 0.004 300 0 
281 1 1 0.0125742 -0.0152022 0.0770988 0 0 0 0 0 -0.496077 0 0 -0.0210391 0 0 0 0.004 300 0 
225 1 1 -0.0382223 -0.0136975 0.0783193 0 0 0 0 0 -0.496077 0 0 -0.0210391 0 0 0 0.004 300 0 
290 1 1 0.00433357 -0.0103158 0.0805479 0 0 0 0 0 -0.496077 0 0 -0.0210391 0 0 0 0.004 300 0 
264 1 1 -0.0247592 -0.00684575 0.0813188 0 0 0 0 0 -0.496077 0 0 -0.0210391 0 0 0 0.004 300 0 
275 1 1 -0.00364467 -0.00551777 0.0801521 0 0 0 0 0 -0.496077 0 0 -0.0210391 0 0 0 0.004 300 0 
257 1 1 0.0165111 -0.00666911 0.0790489 0 0 0 0 0 -0.496077 0 0 -0.0210391 0 0 0 0.004 300 0 
394 1 1 -0.0133584 -0.0048912 0.0814983 0 0 0 0 0 -0.496077 0 0 -0.0210391 0 0 0 0.004 300 0 
407 1 1 0.0258289 -0.00449493 0.081641 0 0 0 0 0 -0.496077 0 0 -0.0210391 0 0 0 0.004 300 0 
311 1 1 0.000501279 -0.0399978 0.0865871 0 0 0 0 0 -0.496077 0 0 -0.0210391 0 0 0 0.004 300 0 
253 1 1 -0.0124461 -0.033556 0.0835261 0 0 0 0 0 -0.496077 0 0 -0.0210391 0 0 0 0.004 300 0 