ITEM: TIMESTEP
17600
ITEM: NUMBER OF ATOMS
890
ITEM: BOX BOUNDS mm mm mm
-0.05 0.05
-0.05 0.05
0 0.15
ITEM: ATOMS id type type x y z ix iy iz vx vy vz fx fy fz omegax omegay omegaz radius f_Temp[0] f_heatFlux[0] 
59 1 1 -0.000715589 -0.0460983 0.00395583 0 0 0 -6.15573e-05 -6.0416e-06 -3.35353e-05 -5.90118e-05 7.78558e-05 6.7283e-05 -0.00511133 -0.00809949 0.0125502 0.004 300 0 
170 1 1 -0.0173498 -0.0426414 0.003973 0 0 0 -2.86009e-05 -1.65308e-05 -2.50759e-05 -4.47229e-05 -7.50681e-07 -3.59091e-05 0.00344593 -0.000288735 -0.00287914 0.004 300 0 
15 1 1 -0.00975016 -0.0449638 0.00393383 0 0 0 -3.84124e-05 -4.20889e-05 -2.3114e-05 -0.000119688 -4.20204e-07 7.05881e-05 0.00814939 -0.0110515 -0.00367374 0.004 300 0 
116 1 1 0.00648744 -0.0428197 0.00395833 0 0 0 -7.058e-05 -3.43873e-05 -6.92314e-05 0.000106273 0.000228386 1.2152e-05 0.00145164 0.00266878 -0.0158612 0.004 300 0 
158 1 1 0.0143628 -0.0437625 0.00389933 0 0 0 -8.54533e-05 -4.78757e-05 -4.50394e-05 6.12269e-05 6.75776e-05 7.13884e-05 0.00101882 -0.0164611 0.00635746 0.004 300 0 
98 1 1 0.021678 -0.0406528 0.00394233 0 0 0 -5.63632e-05 2.28948e-05 8.66553e-06 8.08347e-05 -2.97422e-06 5.20516e-05 0.00776543 -0.0071719 0.0247719 0.004 300 0 
169 1 1 -0.0244317 -0.0390658 0.0039143 0 0 0 -2.26897e-06 2.16306e-05 4.07058e-07 7.04195e-06 -2.37676e-05 -3.08798e-05 0.000453348 0.00031372 -0.00197611 0.004 300 0 
89 1 1 -0.0118119 -0.0369236 0.00395459 0 0 0 -3.88138e-05 -3.64954e-05 -1.61634e-05 -3.21317e-05 3.11295e-05 -7.9544e-06 0.0105443 0.00351634 -0.00670358 0.004 300 0 
152 1 1 -0.00418332 -0.0390221 0.00390515 0 0 0 -9.39993e-05 -4.15243e-05 -2.69395e-05 -4.28282e-05 3.99579e-05 6.44423e-05 0.00967377 -0.0079509 0.0051668 0.004 300 0 
23 1 1 0.0153482 -0.035882 0.00391081 0 0 0 -4.43867e-05 -5.35047e-05 -1.16835e-05 0.000250783 7.33453e-05 0.000101962 0.012089 -0.0102942 -0.0183864 0.004 300 0 
118 1 1 -0.0307535 -0.0342396 0.0039273 0 0 0 -2.15711e-05 1.77513e-05 -4.9826e-06 3.6219e-05 -2.1961e-05 -1.62668e-05 -0.00352867 -0.00659815 0.00580139 0.004 300 0 
30 1 1 -0.0188787 -0.0333717 0.00395294 0 0 0 2.87618e-05 3.6111e-05 5.45391e-05 3.38223e-05 -5.70753e-05 -5.33027e-05 -0.00195109 0.002913 -0.0104599 0.004 300 0 
215 1 1 -0.00603702 -0.0313236 0.00390662 0 0 0 -4.71071e-05 -4.01965e-05 3.68366e-05 -6.09987e-05 4.70749e-05 -5.68097e-05 0.0109806 -0.0152221 -0.0328139 0.004 300 0 
74 1 1 0.00184115 -0.0338191 0.00390669 0 0 0 -5.34011e-05 -6.74237e-05 -3.18451e-06 0.000170923 -8.16145e-05 1.85895e-05 0.0153925 0.00223652 -0.0269002 0.004 300 0 
24 1 1 0.00917818 -0.0308338 0.00392012 0 0 0 -4.44586e-05 -0.000103478 1.5117e-05 0.00024721 -6.90531e-05 5.50009e-05 0.0179 -0.0173804 0.0104153 0.004 300 0 
198 1 1 0.0259423 -0.0339526 0.00395546 0 0 0 2.32585e-05 0.000157766 5.9883e-05 -0.000106441 -8.09962e-05 -0.000106622 -0.0314295 -0.00409648 -0.0475846 0.004 300 0 
161 1 1 0.0335301 -0.0316077 0.00391342 0 0 0 8.58696e-06 4.31951e-05 6.13136e-05 7.74737e-06 6.12104e-05 -0.000127869 -0.000794717 0.00872198 0.00626889 0.004 300 0 
8 1 1 -0.0322714 -0.0264165 0.00398401 0 0 0 -1.59345e-05 1.88962e-05 2.34892e-05 8.86617e-05 -3.29644e-05 4.77747e-05 0.00683033 -0.0105696 0.000315366 0.004 300 0 
12 1 1 -0.0244158 -0.0276965 0.00386377 0 0 0 4.55757e-05 5.01785e-05 4.46887e-05 0.000114891 -4.1958e-05 -3.31603e-06 -0.00665472 0.00918248 0.00684183 0.004 300 0 
188 1 1 -0.0131752 -0.027776 0.00396621 0 0 0 5.83447e-05 5.55004e-05 5.51107e-05 2.37504e-05 -3.28437e-05 -0.000121506 -0.00517146 0.0142262 0.00358047 0.004 300 0 
77 1 1 -9.9947e-05 -0.0260808 0.00389444 0 0 0 -1.88109e-05 -2.9899e-05 7.15063e-05 -3.33536e-05 -5.45297e-05 -1.49233e-05 -0.00144121 0.000158725 0.0315819 0.004 300 0 
113 1 1 0.0165641 -0.0280203 0.00388613 0 0 0 3.30972e-05 -2.32086e-05 3.85553e-05 -3.39884e-05 0.000103019 1.89772e-05 -0.00523078 -0.00298902 0.00962727 0.004 300 0 
183 1 1 0.038454 -0.0253745 0.00393837 0 0 0 4.79516e-05 1.85569e-05 1.58924e-05 0.000111237 -8.11934e-05 -0.000159057 -0.000699907 0.00483669 -0.017447 0.004 300 0 
162 1 1 -0.0396316 -0.0234166 0.0039091 0 0 0 -1.38665e-05 1.97572e-05 3.43376e-06 1.23037e-05 -2.32432e-05 -2.53882e-05 -0.00296077 -0.00102323 0.00184395 0.004 300 0 
53 1 1 -0.0272091 -0.0202484 0.00395262 0 0 0 -6.06483e-06 7.30097e-05 1.76219e-05 0.000103858 -3.3069e-05 -5.28862e-06 -0.0192823 0.00155532 -0.00264849 0.004 300 0 
148 1 1 -0.0187601 -0.0220645 0.00393803 0 0 0 8.39253e-05 6.45096e-05 5.52917e-05 8.37772e-05 -3.96702e-05 -4.38074e-05 -0.00881885 0.00818988 -0.011765 0.004 300 0 
195 1 1 -0.00727954 -0.0215505 0.00394611 0 0 0 -5.73625e-06 -6.26169e-05 2.89135e-05 0.000130906 -0.000111493 -1.25517e-05 0.00823934 -0.00887565 -0.0220237 0.004 300 0 
179 1 1 0.00736568 -0.0231029 0.00394263 0 0 0 -1.9723e-05 -0.000107645 -3.17947e-05 0.000189588 -7.17559e-05 -5.42623e-06 0.00565806 0.00912679 -0.000990737 0.004 300 0 
95 1 1 0.0148499 -0.0203098 0.00393218 0 0 0 -1.65171e-05 -0.00010749 -5.49312e-05 0.000110277 -0.000192645 -0.000192679 0.00906272 0.0118937 0.0157906 0.004 300 0 
76 1 1 0.0230024 -0.023306 0.0039745 0 0 0 9.4989e-05 8.7312e-05 0.00016656 0.000110472 0.000101807 -9.11297e-05 -0.0192203 -0.00205613 0.0066389 0.004 300 0 
100 1 1 0.0325583 -0.0200901 0.00388587 0 0 0 0.00014397 7.89652e-06 6.75956e-05 0.000214633 0.000211654 -0.000180721 -0.0142562 0.0483076 -0.0259405 0.004 300 0 
65 1 1 -0.0430757 -0.0162784 0.00393395 0 0 0 -3.85948e-06 1.49941e-05 -1.64977e-07 -1.20881e-05 -5.91987e-05 -2.25967e-05 -0.00312119 0.00341437 -0.0022252 0.004 300 0 
102 1 1 -0.0351605 -0.0155071 0.00394475 0 0 0 -4.77751e-05 9.84118e-05 2.8993e-05 -1.91528e-05 -4.57818e-06 8.34102e-06 -0.0285843 -0.0173926 0.0270707 0.004 300 0 
213 1 1 -0.0132598 -0.0162742 0.00397361 0 0 0 7.5348e-05 7.02178e-06 2.16104e-05 0.000146441 -5.83719e-05 -1.05599e-05 -0.00864069 0.020662 0.00889204 0.004 300 0 
10 1 1 0.00114823 -0.0182525 0.0047499 0 0 0 3.48008e-05 -3.28636e-05 5.95522e-05 0.000116318 -5.21117e-05 -1.44455e-05 -0.0171017 0.0210451 -0.0252095 0.004 300 0 
5 1 1 0.0087973 -0.0152555 0.00390377 0 0 0 -3.24282e-05 -0.000138353 -2.49266e-05 -1.7748e-06 -7.60888e-05 -0.000183821 0.0235652 -0.0189571 -0.0321177 0.004 300 0 
96 1 1 0.0211689 -0.0155242 0.00395638 0 0 0 -1.46105e-05 -1.46499e-05 -9.55125e-05 -1.11609e-06 -5.14753e-05 -0.000153217 -0.00619714 -0.00983796 -0.00258657 0.004 300 0 
167 1 1 0.0421923 -0.0183685 0.0039211 0 0 0 -3.96806e-05 4.42357e-05 2.12626e-05 0.000121348 -2.53296e-06 -0.000228989 -0.0183973 -0.0113406 0.0224518 0.004 300 0 
124 1 1 -0.0290071 -0.0104709 0.00394641 0 0 0 -6.33297e-05 8.59581e-05 2.33892e-05 -7.54849e-05 -3.33958e-06 5.04889e-05 -0.0271676 -0.0155694 -0.0251252 0.004 300 0 
220 1 1 -0.0217766 -0.014455 0.00398125 0 0 0 -3.91745e-05 2.09026e-05 -1.56984e-05 0.000116711 -9.6558e-05 -2.04244e-06 -0.00727788 -0.0157052 -0.00346228 0.004 300 0 
144 1 1 -0.00535512 -0.013804 0.0038823 0 0 0 6.27782e-06 -4.18221e-05 4.05538e-05 0.000103647 -2.69544e-05 -4.81012e-05 0.00291959 -0.00695594 0.0157289 0.004 300 0 
26 1 1 0.00255538 -0.0104633 0.00390597 0 0 0 1.67775e-05 -5.24439e-05 9.70991e-06 1.00569e-06 -0.000181625 -0.000168047 0.0158806 0.00392257 0.0126883 0.004 300 0 
194 1 1 0.0287348 -0.0131036 0.00393085 0 0 0 9.89137e-05 -1.96341e-05 -5.32219e-05 0.000174647 7.86465e-05 -0.000158157 -0.0212308 0.00325343 -0.000925429 0.004 300 0 
37 1 1 0.0366695 -0.0122316 0.00393307 0 0 0 6.94667e-05 -8.42213e-05 4.27641e-06 0.000522133 0.000458211 -0.000265581 0.0112035 0.0113294 0.0181227 0.004 300 0 
219 1 1 0.0447284 -0.0108718 0.00390892 0 0 0 -0.000110505 2.80597e-05 -2.89373e-05 0.000129371 0.000227852 -0.000108727 -0.00926255 -0.0268629 -0.00462538 0.004 300 0 
636 1 1 -0.0451997 -0.00864089 0.00392105 0 0 0 1.29843e-05 1.58027e-05 -6.20611e-06 -4.76181e-06 -4.77512e-06 -2.97663e-05 -0.00228892 0.0015831 -0.0033142 0.004 300 0 
39 1 1 -0.0161466 -0.00885152 0.00388972 0 0 0 -1.7679e-05 -2.48569e-05 -1.98942e-07 0.00014635 -3.03746e-05 3.92355e-05 -0.00330452 -0.00387494 0.00108417 0.004 300 0 
171 1 1 -0.00395984 -0.00597857 0.0039206 0 0 0 -3.98773e-05 -6.16256e-05 3.81223e-05 9.95005e-05 -5.49228e-05 -3.20004e-05 0.00531049 -0.00464627 0.00813518 0.004 300 0 
200 1 1 0.0146294 -0.00986539 0.0039644 0 0 0 2.92793e-05 -0.000197636 -0.00010787 -0.000116505 0.000196793 -0.000321067 0.0206251 0.0194649 0.0290778 0.004 300 0 
21 1 1 0.0222518 -0.00762178 0.00394374 0 0 0 2.87905e-05 -7.98033e-05 -0.000114355 -0.00013769 -2.5879e-05 -0.000227609 0.0128675 -0.00287538 -0.0172373 0.004 300 0 
17 1 1 0.0298455 -0.0052075 0.00394897 0 0 0 7.73782e-05 -0.00011962 -1.71547e-05 5.28043e-05 -0.000128957 -0.000119792 0.0341624 0.00489545 0.00793738 0.004 300 0 
477 1 1 -0.0445897 -0.000710269 0.00396444 0 0 0 1.86993e-05 2.06239e-05 -2.79995e-05 3.1734e-05 4.85137e-06 -2.02186e-05 -0.00441878 0.00889794 0.0090795 0.004 300 0 
140 1 1 -0.0352686 -0.00371661 0.00387169 0 0 0 -1.43429e-07 2.91971e-05 -1.53212e-05 3.47592e-05 -0.000139073 -3.71982e-05 -0.0118905 -0.000783726 -0.0156702 0.004 300 0 
119 1 1 -0.0273897 -0.00269731 0.00396337 0 0 0 1.46778e-06 6.00829e-06 -3.08214e-05 8.14602e-05 -0.000147837 5.14199e-05 0.00243001 -0.00435406 0.00324908 0.004 300 0 
207 1 1 -0.0194907 -0.00168749 0.00389474 0 0 0 -4.16611e-06 -5.12018e-05 2.9323e-06 5.18098e-05 -6.28856e-05 1.57619e-05 0.0149477 -0.00128505 -0.00378347 0.004 300 0 
69 1 1 -0.011157 -0.00264579 0.00393008 0 0 0 -2.70212e-05 -5.99838e-05 5.70556e-06 0.000142887 6.60971e-06 3.92675e-05 0.0085117 -0.00407834 -0.0071329 0.004 300 0 
221 1 1 0.00874792 -0.00448969 0.00393207 0 0 0 -7.42417e-05 -0.000188048 -1.09089e-05 -4.1202e-05 2.51651e-05 -0.000122548 0.0433495 -0.0102343 -0.0522684 0.004 300 0 
457 1 1 0.0163506 -0.00208099 0.00395991 0 0 0 -5.64038e-05 -0.000200603 -6.03322e-05 0.000157567 7.2233e-06 -0.000296005 0.0181019 0.00986219 0.0249016 0.004 300 0 
155 1 1 0.0378908 -0.00224731 0.0039368 0 0 0 -0.000131991 -0.000239427 -0.000137089 0.000517904 -7.75957e-05 -8.16396e-05 0.0530728 -0.0341 0.0774653 0.004 300 0 
665 1 1 0.0459183 -0.0030764 0.00394255 0 0 0 1.6593e-05 -1.47414e-05 -0.000104651 9.79337e-05 0.000106991 -0.00016743 -0.0116744 -0.00467449 -0.0280513 0.004 300 0 
120 1 1 0.00918416 -0.0371087 0.00876815 0 0 0 -9.83927e-05 -0.000131238 -6.50914e-05 0.000394051 -1.354e-05 2.1414e-05 0.0198295 -0.0043004 0.0134635 0.004 300 0 
9 1 1 -0.0247148 -0.033359 0.00937625 0 0 0 -2.50529e-05 2.14185e-05 1.44512e-05 6.55796e-05 -6.40295e-05 -2.33283e-05 0.0159658 -0.0287748 -0.0106127 0.004 300 0 
101 1 1 -0.0188638 -0.0277188 0.00955166 0 0 0 3.21486e-05 8.90477e-05 5.79372e-05 1.83703e-05 -9.29547e-05 -5.79595e-05 -0.00899755 -0.0163278 0.000556252 0.004 300 0 
48 1 1 0.0221994 -0.0293134 0.00919961 0 0 0 1.6509e-05 6.4525e-05 0.000117009 6.96164e-05 0.000115807 -4.06916e-05 0.066963 -0.0151893 0.0519309 0.004 300 0 
75 1 1 0.0293595 -0.026175 0.00787388 0 0 0 7.4899e-05 0.000133083 0.000228635 0.000179525 4.94195e-05 -0.000261946 -0.000617644 0.0140466 -0.0341392 0.004 300 0 
46 1 1 -0.0327977 -0.0205742 0.00958393 0 0 0 3.26841e-05 0.000104789 5.47695e-05 0.000137819 -4.4064e-05 -4.79714e-06 0.0310295 0.0155623 0.000200405 0.004 300 0 
33 1 1 -0.0130354 -0.0220247 0.00949583 0 0 0 0.000107476 2.72462e-05 0.000110721 0.00012191 -0.000224089 -0.000122971 0.00199376 -0.00687247 -0.0218862 0.004 300 0 
11 1 1 0.0268895 -0.0187452 0.00924427 0 0 0 8.70917e-06 7.84094e-05 6.05549e-05 0.000258676 1.01821e-05 -0.000222673 -0.0226797 -0.0692901 0.0347021 0.004 300 0 
71 1 1 -0.0372783 -0.00953929 0.00877256 0 0 0 -3.31324e-05 7.01124e-05 -9.55537e-06 -0.000109777 -0.000134129 -0.000157899 0.0261258 0.030652 -0.0201363 0.004 300 0 
62 1 1 -0.0228071 -0.00771206 0.00813953 0 0 0 -3.9148e-05 -1.57408e-05 3.5875e-06 0.000210176 -0.000147831 8.33164e-05 0.00926593 -0.00177455 -0.0093921 0.004 300 0 
19 1 1 -0.00970639 -0.00905671 0.00849125 0 0 0 -2.45863e-05 -3.81898e-05 2.49812e-05 0.000190119 3.48446e-05 2.90635e-05 -0.0132326 0.000646947 -0.00731672 0.004 300 0 
187 1 1 0.00796642 -0.00988127 0.00975766 0 0 0 -0.000131731 -0.000127667 -2.6581e-05 6.09253e-05 -0.00034294 -0.000190845 -0.0414815 -0.0029436 0.0274377 0.004 300 0 
157 1 1 0.0395812 -0.00752003 0.00963061 0 0 0 -7.43581e-05 -9.27357e-05 -0.000145508 0.00077108 0.000318279 3.04375e-05 -0.0604334 -0.0124641 -0.0191045 0.004 300 0 
18 1 1 0.00229166 -0.00405007 0.00852728 0 0 0 -0.000115657 -0.00016916 0.000123219 0.000123905 -0.00017714 -0.000184533 0.021179 0.0179181 0.0371863 0.004 300 0 
185 1 1 -0.0053113 -0.0457349 0.0104434 0 0 0 -6.49392e-05 -5.69531e-05 -3.79399e-05 -1.11057e-05 2.3781e-05 1.65655e-05 -0.00114094 0.013627 0.0114579 0.004 300 0 
83 1 1 0.00256741 -0.0459475 0.0112642 0 0 0 -0.000112571 -8.35095e-05 6.33205e-05 1.25184e-05 -1.55403e-05 9.58802e-05 0.011885 -0.0430229 -0.00251575 0.004 300 0 
58 1 1 -0.0218567 -0.0405819 0.0112767 0 0 0 -6.19191e-05 7.09639e-05 -8.06303e-06 -1.97105e-05 -1.95505e-05 -1.62412e-05 -0.0146292 -0.0125725 0.0217259 0.004 300 0 
105 1 1 -0.0135857 -0.0439661 0.0108785 0 0 0 -2.06347e-05 -6.33872e-05 -9.58015e-05 -0.000164596 7.78665e-05 4.56738e-05 -0.00624068 0.0278559 0.0006252 0.004 300 0 
223 1 1 0.0103956 -0.0448678 0.0106687 0 0 0 -0.000120963 -8.4048e-05 5.24666e-05 8.30155e-05 -4.1587e-06 0.000178402 0.00373364 0.0362095 0.022052 0.004 300 0 
217 1 1 0.0179432 -0.0424255 0.0108271 0 0 0 -0.000130123 -2.83336e-05 -0.000108185 8.18428e-05 9.44318e-05 0.000224022 -0.0124706 -0.00124011 0.0125204 0.004 300 0 
6 1 1 -0.0162617 -0.0350303 0.0113124 0 0 0 -9.355e-05 6.18956e-05 0.000103214 -6.6524e-05 -4.24113e-05 2.07528e-06 0.0195554 -0.0203092 -0.0203796 0.004 300 0 
151 1 1 -0.00801322 -0.0382602 0.0108113 0 0 0 -0.000160867 -9.36722e-05 -3.50808e-05 -2.78261e-05 0.000110893 3.72484e-05 0.0131007 -0.030868 0.0080797 0.004 300 0 
2 1 1 0.000443549 -0.0383078 0.0102708 0 0 0 -0.000175832 -9.59679e-05 -2.04888e-05 0.000237175 -3.27735e-06 6.32107e-05 -0.0079454 -0.0014229 -0.0134475 0.004 300 0 
117 1 1 0.0249196 -0.0387269 0.0109169 0 0 0 -0.000122282 2.36456e-05 -3.10979e-05 0.000142117 0.000112078 0.000292252 0.00463775 -0.0157421 0.0109956 0.004 300 0 
13 1 1 -0.0323457 -0.0327545 0.0115375 0 0 0 -4.65306e-05 2.84682e-05 -3.85902e-05 3.63674e-05 -2.48191e-06 -5.95786e-05 0.00131552 0.00306761 -0.00589903 0.004 300 0 
193 1 1 -0.00982569 -0.0305003 0.0107693 0 0 0 -1.02481e-05 -4.00476e-05 0.000133459 -1.64731e-05 -3.72652e-06 -2.19338e-05 0.0217099 0.0342497 -0.0247287 0.004 300 0 
47 1 1 -0.00133912 -0.0305438 0.0103846 0 0 0 -7.2993e-05 -9.34854e-05 0.000110411 0.000240753 -0.000133535 8.59867e-06 0.040859 -0.0275929 -0.0372437 0.004 300 0 
153 1 1 0.00656312 -0.0300235 0.0113662 0 0 0 -0.000200996 -9.68957e-05 9.16119e-05 0.000235857 7.02037e-05 -0.000119838 -0.0707874 0.0143004 0.00731895 0.004 300 0 
41 1 1 0.0148067 -0.0317913 0.0106527 0 0 0 -8.95767e-05 -9.57321e-05 -5.53182e-05 0.000157403 0.000178102 0.00020282 0.000392253 -0.031541 -0.0217824 0.004 300 0 
163 1 1 0.0311565 -0.0339185 0.0111105 0 0 0 -1.63857e-05 1.71961e-05 7.07944e-05 0.000139749 0.000131751 1.23938e-05 0.0252564 -0.00375647 -0.0136245 0.004 300 0 
214 1 1 -0.0375019 -0.0268253 0.0107154 0 0 0 -5.59453e-06 4.26592e-05 -8.51493e-06 3.74321e-05 -4.8534e-06 -6.08639e-05 0.00405096 0.0042087 0.00289 0.004 300 0 
210 1 1 0.0364693 -0.0280976 0.0111129 0 0 0 9.00487e-05 1.77592e-05 0.000100701 0.000171738 8.06865e-05 -0.000280677 0.00832365 0.025931 -0.00683173 0.004 300 0 
108 1 1 -0.0260969 -0.0246377 0.0109265 0 0 0 3.23583e-05 0.000146259 -3.12525e-05 9.80895e-05 -4.12918e-05 -8.22201e-05 -0.0187073 -0.0123442 0.00252907 0.004 300 0 
40 1 1 -0.00551168 -0.0238695 0.01133 0 0 0 1.38866e-05 -5.94369e-05 0.000121917 0.000134059 -0.000182853 -1.48349e-05 -0.0129452 0.0108395 0.0108353 0.004 300 0 
55 1 1 0.00236161 -0.0232844 0.0108257 0 0 0 -9.53166e-05 -0.000152196 8.32005e-05 0.000293774 -0.000180045 -0.00029839 0.041197 0.000364898 -0.0183999 0.004 300 0 
91 1 1 0.0120906 -0.0243832 0.0101857 0 0 0 -9.85521e-05 -0.000214188 -7.61853e-05 1.82715e-05 -4.36829e-05 -4.78116e-05 0.026714 -0.0426877 0.0163179 0.004 300 0 
112 1 1 0.0192789 -0.0205363 0.0105067 0 0 0 -3.96182e-05 -0.000208599 -0.000231227 0.000337005 -9.09877e-05 -0.000377798 0.00250113 -0.024943 0.0317215 0.004 300 0 
178 1 1 0.0318658 -0.0225272 0.0144789 0 0 0 0.000167859 0.000135551 -2.69275e-05 0.000291052 0.000376512 -0.000183189 -0.0244116 0.0341442 -0.0216999 0.004 300 0 
131 1 1 0.0407763 -0.0214687 0.0110512 0 0 0 9.93492e-05 4.76709e-05 9.81692e-05 0.000375166 -6.27521e-05 -0.000552119 0.0193469 0.0420269 -0.00832199 0.004 300 0 
160 1 1 -0.0414732 -0.0199366 0.0108145 0 0 0 1.7417e-05 4.93201e-05 1.80023e-05 -7.71043e-07 -2.35372e-05 -4.02693e-05 -0.00539147 0.00751267 -0.00488136 0.004 300 0 
43 1 1 -0.0361112 -0.0150944 0.0142643 0 0 0 3.42356e-05 0.000144422 2.40604e-05 4.38745e-05 6.99632e-05 -3.76948e-05 -0.0496621 0.0035461 0.0127967 0.004 300 0 
4 1 1 -0.027036 -0.0151159 0.0100738 0 0 0 -7.87799e-06 0.000166513 0.000100255 6.60094e-05 -3.33682e-05 1.0829e-05 0.0120813 0.019984 0.0285675 0.004 300 0 
104 1 1 -0.0203035 -0.0192307 0.011197 0 0 0 6.26137e-05 0.000125041 5.0215e-05 0.000181992 3.59318e-06 -8.57342e-05 0.0117653 -0.0255023 -0.0129428 0.004 300 0 
20 1 1 -0.00745543 -0.0162219 0.0110959 0 0 0 -3.29543e-05 -4.34127e-05 6.33242e-05 0.000199529 -0.000122708 -0.000155172 -0.00733329 0.0137464 -0.0118015 0.004 300 0 
45 1 1 0.00082551 -0.0164519 0.0146071 0 0 0 -0.000123189 -0.000267306 0.000162892 0.000152962 -0.000307183 -0.000193197 -0.0385115 0.00835311 0.0136827 0.004 300 0 
159 1 1 0.00795151 -0.0177063 0.0113496 0 0 0 -0.000153461 -0.000275352 -3.75411e-05 -3.68722e-05 -0.000171352 -0.000525599 -0.00661602 0.0336208 -0.0041071 0.004 300 0 
136 1 1 0.0347927 -0.0163382 0.0104653 0 0 0 7.32839e-05 -4.01552e-06 -1.34273e-05 0.000623318 0.000243384 -0.000450445 -0.010669 -0.0773474 0.036632 0.004 300 0 
177 1 1 -0.0443292 -0.0125254 0.0108183 0 0 0 -7.49408e-06 4.15609e-05 -6.84078e-07 -3.45628e-05 -3.03023e-05 -6.00247e-05 -0.000975297 -0.00698294 0.0115552 0.004 300 0 
139 1 1 -0.0168217 -0.0121099 0.0110435 0 0 0 2.64372e-05 7.1315e-05 5.79964e-05 0.00032177 -1.38371e-05 -7.41179e-07 -0.0208103 0.003994 0.018419 0.004 300 0 
211 1 1 -0.00209459 -0.0104155 0.0103094 0 0 0 -2.1263e-05 -0.000183199 5.45926e-05 9.63204e-05 -0.000211823 -0.000129695 0.0216368 -0.000949278 -0.0188166 0.004 300 0 
54 1 1 0.0149157 -0.0138961 0.010832 0 0 0 -8.60275e-05 -0.000351154 -0.00030186 -0.000192674 -0.000161137 -0.000849381 0.0127597 -0.0142549 -0.0201689 0.004 300 0 
84 1 1 0.0232719 -0.0118018 0.0106604 0 0 0 -1.33062e-05 -7.29045e-05 -0.000169157 0.00018662 -9.06142e-05 -0.00021927 -0.000867387 0.0286148 7.53748e-05 0.004 300 0 
180 1 1 0.0438201 -0.0141 0.0110465 0 0 0 -9.98802e-06 3.03983e-05 5.26829e-05 0.0003656 6.5512e-05 -0.000372613 -0.00512766 0.0510717 0.0181871 0.004 300 0 
103 1 1 0.0174442 -0.00636682 0.0105724 0 0 0 -9.92483e-05 -0.000267429 -0.000178695 -6.75273e-05 -2.19838e-05 -0.000535596 -0.0061157 -0.039918 0.0116886 0.004 300 0 
156 1 1 0.0308892 -0.00946212 0.0106301 0 0 0 -6.16225e-05 -0.00010729 -7.78359e-05 0.000171565 0.00010352 -0.000389165 0.0494067 -0.0612069 -0.000359537 0.004 300 0 
197 1 1 -0.045782 -0.00470776 0.0107637 0 0 0 1.62273e-05 2.42335e-05 -2.17572e-05 2.45906e-05 -9.51899e-06 -3.15458e-05 -0.001546 -0.00574307 -0.00715264 0.004 300 0 
87 1 1 -0.0386044 -0.00380035 0.0141432 0 0 0 0.000121968 0.000122949 -3.61936e-05 1.74607e-05 -0.000232209 -2.92199e-05 -0.0565649 0.0130202 0.013812 0.004 300 0 
130 1 1 -0.03136 -0.00387124 0.0107763 0 0 0 0.000126821 -3.86448e-05 -7.59375e-05 1.10003e-06 -9.20215e-05 2.13311e-05 0.0112921 0.0347832 -0.00962574 0.004 300 0 
604 1 1 -0.0224586 -0.000300097 0.0110783 0 0 0 5.90409e-05 -7.60936e-05 -2.29076e-06 0.000116944 1.92674e-05 -6.3707e-05 -0.00975237 0.00516602 -0.00937953 0.004 300 0 
146 1 1 -0.0155076 -0.00400774 0.010391 0 0 0 1.01641e-05 -4.23739e-05 2.15916e-05 0.000236192 0.00010554 3.76627e-05 -0.0169666 0.00496234 0.0141367 0.004 300 0 
57 1 1 -0.00517419 -0.00310657 0.0111954 0 0 0 -0.000117024 -0.000152426 9.57052e-05 0.000212435 -2.54005e-05 -4.24166e-05 0.0164479 -0.0301527 -0.0175087 0.004 300 0 
493 1 1 0.0116962 -0.000875866 0.0103674 0 0 0 -0.000188046 -0.000589754 -2.30993e-06 0.000289357 -1.13969e-06 -0.000406851 0.0228889 0.00451506 0.0528085 0.004 300 0 
31 1 1 0.0250487 -0.00405492 0.0104606 0 0 0 -7.03187e-05 -0.000174208 -0.000169688 -0.00016092 7.7315e-05 -0.000257262 -0.00109582 -0.0271016 0.00691143 0.004 300 0 
588 1 1 0.0326 -0.00174602 0.0105434 0 0 0 -6.15898e-05 -0.000130317 -2.38742e-05 6.93051e-05 -0.000417074 -7.96787e-05 -0.0634937 -0.0265804 0.000390801 0.004 300 0 
63 1 1 0.0459238 -0.00327929 0.0119248 0 0 0 -6.24273e-05 -0.000158252 -0.000206476 0.00056846 0.000191815 6.05622e-05 0.047936 -0.02538 0.0351675 0.004 300 0 
107 1 1 -0.00850422 -0.0452739 0.0176769 0 0 0 -0.000110574 -3.82018e-05 -6.13734e-05 0.000179444 6.78525e-05 3.37085e-05 -0.0169171 -0.0343613 0.00585119 0.004 300 0 
222 1 1 -0.00141893 -0.041809 0.0171136 0 0 0 -0.000206429 1.19971e-05 6.18682e-05 0.000220816 0.000113003 4.54399e-05 -0.0123105 -0.0039131 0.0274319 0.004 300 0 
142 1 1 0.0061591 -0.0401398 0.0154191 0 0 0 -0.000230159 -1.12246e-05 -1.96678e-06 0.000214798 0.000114661 5.9514e-05 -0.0664343 -0.0107379 -0.0125171 0.004 300 0 
172 1 1 0.011602 -0.0446446 0.0189533 0 0 0 -0.000178823 -5.76897e-05 -0.000164723 0.000106838 8.9729e-05 9.28476e-05 -0.0425608 0.00769327 0.0490377 0.004 300 0 
109 1 1 0.0204201 -0.0412794 0.0183122 0 0 0 -0.000290016 4.40286e-05 -0.000109719 0.000120412 0.000215866 0.000248488 -0.00714374 -0.0378285 0.0687793 0.004 300 0 
150 1 1 -0.0273274 -0.0370831 0.0158762 0 0 0 -8.49165e-05 6.05498e-05 -5.22843e-05 4.02765e-06 -7.24248e-06 -5.1635e-05 -0.0185898 0.00738531 0.0144793 0.004 300 0 
38 1 1 -0.0197787 -0.0373718 0.0182815 0 0 0 -0.000157963 1.3253e-05 -5.22989e-05 -3.16481e-05 -3.5525e-07 7.10998e-05 0.0443798 -0.0177029 -0.0240332 0.004 300 0 
199 1 1 -0.0118542 -0.0370291 0.01765 0 0 0 -0.000117459 -7.13311e-05 -3.5982e-05 -6.08693e-05 5.43949e-05 0.000154634 -0.0249813 0.0369788 -0.00671372 0.004 300 0 
93 1 1 0.0137643 -0.0377756 0.0156786 0 0 0 -0.000319673 -9.39557e-05 -0.000222086 0.000165824 0.000139086 0.000248559 0.00359835 -0.027636 0.00869976 0.004 300 0 
64 1 1 0.0280176 -0.036509 0.0179278 0 0 0 -0.000140839 0.000101977 -3.99095e-05 0.000542735 0.000637354 0.000283925 -0.0351532 -0.018169 -0.0594906 0.004 300 0 
22 1 1 -0.0327417 -0.0324229 0.0194578 0 0 0 2.64819e-05 1.04572e-05 -3.17723e-05 2.29474e-05 7.23883e-05 -6.60245e-05 0.00722024 0.0159441 -0.0111295 0.004 300 0 
174 1 1 -0.0224325 -0.0302103 0.0162614 0 0 0 -6.47758e-05 5.74631e-05 -3.47708e-06 -5.04096e-05 -8.48671e-05 4.5329e-05 -0.0331292 0.0138016 -0.00730207 0.004 300 0 
32 1 1 -0.00428424 -0.0343959 0.0166782 0 0 0 -0.000258983 -8.16729e-05 5.39047e-05 0.000256909 -5.63744e-05 0.000169075 -0.00906738 0.00664683 -0.0239498 0.004 300 0 
128 1 1 0.00347472 -0.0331344 0.0179965 0 0 0 -0.000285228 -0.000248369 0.000230691 0.000221757 0.000338571 -0.000132637 0.144214 0.00345635 0.0294817 0.004 300 0 
88 1 1 0.0113686 -0.0304827 0.0177088 0 0 0 -0.000250447 -0.000244511 5.51575e-06 1.89722e-05 0.000163216 0.00025094 0.102562 -0.0101931 -0.0476104 0.004 300 0 
137 1 1 0.0208028 -0.0338194 0.0156299 0 0 0 -0.000189221 -1.97716e-05 -0.000103965 -0.000112864 0.000111791 0.000214004 0.0115738 -0.0480668 -0.0657284 0.004 300 0 
154 1 1 0.033982 -0.0311397 0.0180541 0 0 0 6.84029e-05 2.3133e-05 -1.46525e-06 -0.000182417 0.000562318 0.000135043 0.0222412 -0.00479084 -0.0303909 0.004 300 0 
52 1 1 -0.0319909 -0.0252361 0.0161641 0 0 0 -1.35867e-05 9.03935e-05 -7.03649e-05 6.66145e-06 4.42923e-05 -9.35763e-05 0.00120318 0.00555936 0.0264453 0.004 300 0 
80 1 1 -0.00960159 -0.026507 0.0175824 0 0 0 -1.07055e-05 -6.23074e-05 8.84637e-05 4.37464e-05 -0.000138756 -3.43081e-05 -0.00991347 -0.0399523 0.00876447 0.004 300 0 
125 1 1 -0.00117055 -0.0267 0.0173742 0 0 0 -0.000233573 -0.000130554 0.000381526 2.29799e-05 -2.87118e-05 -0.000288848 -0.0406368 -0.0767271 -0.0838879 0.004 300 0 
72 1 1 0.0179263 -0.0264326 0.0156336 0 0 0 7.67307e-05 -0.000149625 -0.000113329 0.000245519 0.000101526 -3.55063e-06 -0.00785284 0.0581209 0.00188743 0.004 300 0 
34 1 1 0.0269642 -0.0287273 0.0154178 0 0 0 1.99695e-05 0.000144122 2.56314e-05 6.24699e-05 0.000451199 -6.2799e-05 -0.0711539 0.0149276 -0.00838844 0.004 300 0 
218 1 1 -0.0395974 -0.0234624 0.0176933 0 0 0 9.55937e-06 2.70294e-05 7.38478e-06 3.27979e-05 3.24592e-05 -5.06277e-05 0.0160427 0.00446545 -0.0140843 0.004 300 0 
70 1 1 -0.0247179 -0.0230246 0.0185742 0 0 0 -3.42086e-05 8.19971e-05 -6.61037e-05 -6.6156e-05 0.000115273 -7.04819e-05 0.0209686 -0.00683396 -0.00592678 0.004 300 0 
132 1 1 -0.0171321 -0.0242622 0.016474 0 0 0 -2.95716e-05 2.18945e-05 -4.00383e-05 -5.12252e-05 -0.000113184 -4.74056e-05 0.0145172 0.0016462 -0.00761478 0.004 300 0 
196 1 1 0.00716555 -0.0237882 0.0170616 0 0 0 -0.000196635 -0.000155355 0.000125301 0.000372699 0.000111226 -0.000534151 -0.0470633 -0.0352088 0.00154032 0.004 300 0 
362 1 1 0.0243882 -0.0214313 0.0170648 0 0 0 -0.000204092 3.03943e-05 -0.000337773 0.000176599 0.000108001 -0.000348625 0.0612231 -0.159945 0.0551572 0.004 300 0 
49 1 1 0.0387624 -0.0248032 0.0179813 0 0 0 0.000248515 -3.98816e-05 5.67384e-05 -4.11308e-05 0.000412039 -0.000369896 0.0057211 0.00407118 -0.0198979 0.004 300 0 
173 1 1 -0.0431202 -0.0163108 0.0177153 0 0 0 -1.02921e-06 9.78496e-05 1.08817e-05 3.64236e-05 2.64616e-05 -6.82098e-05 -0.0133653 -0.0127262 0.0256521 0.004 300 0 
50 1 1 -0.0295078 -0.0167655 0.0182824 0 0 0 3.56518e-05 0.000154485 4.1575e-05 8.27088e-05 0.000267569 2.08527e-06 0.0353541 -0.0167037 -0.0155034 0.004 300 0 
202 1 1 -0.0134617 -0.0172148 0.0161128 0 0 0 -1.74423e-05 1.1689e-05 5.58492e-05 0.000241108 -0.000172033 -0.000211106 0.0340284 -0.027184 -0.00329628 0.004 300 0 
86 1 1 -0.00524694 -0.0199181 0.0183793 0 0 0 -0.000153715 -0.000125719 0.000184959 7.6228e-05 -0.000187304 0.000106602 -0.0101272 -0.0357975 0.0188239 0.004 300 0 
129 1 1 0.0138599 -0.0196305 0.0162872 0 0 0 -3.62271e-05 -0.000196704 -0.000229164 0.000446605 0.000259451 -0.000286072 -0.0576136 0.0793107 0.005256 0.004 300 0 
82 1 1 0.0291404 -0.0151381 0.0159327 0 0 0 -2.50258e-05 0.000189621 -0.000215815 0.000265315 0.000507696 -0.000362109 -0.0758125 0.0807462 -0.0302792 0.004 300 0 
1 1 1 0.0424679 -0.0178052 0.0178805 0 0 0 0.000273944 -4.8356e-06 5.51578e-05 0.000360558 -3.3809e-06 -0.000646988 0.005851 -0.00377044 0.00584344 0.004 300 0 
168 1 1 -0.022481 -0.0136305 0.0164164 0 0 0 9.95737e-05 7.84989e-05 0.000102159 0.00023012 6.7103e-05 -0.000108141 0.0213066 0.0166752 -0.0253799 0.004 300 0 
121 1 1 -0.00514887 -0.0120216 0.0174588 0 0 0 -0.000185587 -0.000176249 1.97289e-05 0.000280577 -0.000120786 -6.64063e-05 -0.00801126 -0.0471311 -0.0387534 0.004 300 0 
28 1 1 0.00814445 -0.013982 0.0183239 0 0 0 -0.00019382 -0.000433879 -5.90154e-05 -0.000220583 6.21307e-05 -0.000903014 0.0318192 -0.0433014 -0.00410193 0.004 300 0 
42 1 1 0.0200418 -0.014812 0.0172672 0 0 0 -0.000169632 -0.000192656 -0.000377786 0.00093791 0.000115646 -0.000368576 0.0510175 -0.0736287 -0.0296308 0.004 300 0 
60 1 1 0.0376285 -0.0116482 0.0161701 0 0 0 -7.30876e-05 7.82475e-05 -9.88323e-05 0.000610162 -0.000104962 -0.000234441 0.000569072 0.0637041 0.0346141 0.004 300 0 
135 1 1 -0.0452102 -0.00864348 0.0176858 0 0 0 -2.36247e-05 4.36685e-05 -5.18071e-05 9.18965e-05 -2.68315e-06 -7.13696e-05 -0.00190041 0.00870346 -0.00516813 0.004 300 0 
81 1 1 -0.0376104 -0.00944864 0.0199512 0 0 0 6.35387e-06 0.000144923 -0.000150078 0.000209405 0.000309312 0.0002042 -0.0175259 0.00304941 0.0163732 0.004 300 0 
190 1 1 -0.0303516 -0.00906442 0.0166811 0 0 0 0.000126945 8.20644e-05 1.87092e-05 0.000188775 0.000260535 0.000214856 -0.043489 -0.0443864 0.00275502 0.004 300 0 
7 1 1 -0.0204513 -0.00598467 0.0162529 0 0 0 0.000137015 -5.87633e-06 7.75264e-05 0.000140714 0.000109464 -9.54197e-05 -0.0213384 0.0159961 0.0181493 0.004 300 0 
145 1 1 -0.0119877 -0.00832445 0.0160615 0 0 0 7.67547e-05 1.64017e-05 -3.08482e-06 0.000290933 0.000141088 -1.57724e-05 0.0232328 0.0279313 -0.0108309 0.004 300 0 
186 1 1 0.00215821 -0.00892772 0.0168468 0 0 0 -0.000153168 -0.000444068 0.000143382 0.000133089 -9.15558e-05 -0.000551411 0.0474621 -0.0275458 -0.024445 0.004 300 0 
56 1 1 0.014415 -0.00916508 0.0173845 0 0 0 -0.00022928 -0.000391471 1.73834e-05 0.000134986 -0.000456738 -0.000533056 0.0774414 0.109604 -0.0144088 0.004 300 0 
191 1 1 0.0221396 -0.0071906 0.0170969 0 0 0 -0.000258845 -0.000104887 -0.000361435 -0.000187738 0.000392242 -0.000157536 -0.0545463 -0.0427252 0.0915813 0.004 300 0 
208 1 1 0.0315215 -0.00611677 0.0178089 0 0 0 -0.000115318 -0.000104308 -7.17625e-05 -0.000580416 -0.000296622 -0.0002249 -0.0495378 0.128961 0.154811 0.004 300 0 
92 1 1 0.0451138 -0.00920156 0.0172137 0 0 0 -6.1436e-05 0.000151772 -0.000150417 0.000297303 0.000136402 -3.19051e-05 -0.101784 -0.0516228 -0.030733 0.004 300 0 
192 1 1 -0.0460779 -0.000753192 0.017625 0 0 0 2.97715e-05 3.93969e-05 -5.73962e-05 6.50781e-05 -1.41578e-05 1.42713e-05 -0.00392383 0.0127628 0.00826256 0.004 300 0 
462 1 1 -0.0271593 -0.00181607 0.0172865 0 0 0 0.000123985 -3.869e-06 -2.67532e-05 0.000158927 0.000156417 5.36984e-05 0.00829094 -0.00866563 -0.0121414 0.004 300 0 
450 1 1 -0.01282 -0.000776986 0.0182553 0 0 0 -8.11688e-05 -1.90067e-05 3.29123e-05 0.000131231 0.000384848 -0.000261937 -0.00502775 -0.0390863 0.0361548 0.004 300 0 
111 1 1 -0.00562733 -0.0040846 0.0190587 0 0 0 -0.000398307 -0.000182049 0.000116555 0.00015728 0.000191843 -0.000182257 0.0114285 -0.0139961 -0.13107 0.004 300 0 