ITEM: TIMESTEP
16000
ITEM: NUMBER OF ATOMS
890
ITEM: BOX BOUNDS mm mm mm
-0.05 0.05
-0.05 0.05
0 0.15
ITEM: ATOMS id type type x y z ix iy iz vx vy vz fx fy fz omegax omegay omegaz radius f_Temp[0] f_heatFlux[0] 
59 1 1 -0.000715266 -0.0460985 0.0039558 0 0 0 -1.44557e-05 1.90449e-05 2.85009e-06 -1.25249e-06 4.46216e-05 -4.87097e-05 0.000506061 -0.00958642 0.00646665 0.004 300 0 
170 1 1 -0.0173496 -0.0426412 0.00397313 0 0 0 -4.67881e-05 7.9084e-06 3.03325e-05 -1.52241e-05 2.18334e-06 -7.02221e-06 -0.00101786 -6.74545e-06 -0.00279821 0.004 300 0 
15 1 1 -0.00975 -0.0449636 0.00393392 0 0 0 -5.0899e-05 1.51129e-05 4.43802e-05 -6.49927e-05 1.4252e-05 -3.24256e-05 -0.000531568 -0.0111936 0.0129312 0.004 300 0 
116 1 1 0.00648835 -0.0428207 0.00395783 0 0 0 4.95952e-05 -1.60647e-05 -4.3572e-05 -0.000131686 0.000149152 6.91549e-05 -0.00374403 0.0178013 -0.0245465 0.004 300 0 
158 1 1 0.0143642 -0.0437618 0.00389992 0 0 0 7.87279e-06 -4.353e-06 1.08919e-06 -2.00886e-05 8.81138e-05 5.19642e-05 0.00304635 -0.0125462 0.00578397 0.004 300 0 
98 1 1 0.0216815 -0.0406509 0.00394116 0 0 0 5.80154e-05 4.53031e-05 4.44254e-05 -7.05693e-05 7.59523e-05 3.86767e-06 0.000403039 0.00956904 -0.00580293 0.004 300 0 
169 1 1 -0.0244315 -0.0390657 0.00391444 0 0 0 -4.96224e-05 4.7059e-05 2.75103e-05 3.66721e-05 -2.71646e-06 -2.32091e-05 -0.00508864 -0.00832326 0.00772241 0.004 300 0 
89 1 1 -0.0118106 -0.0369237 0.00395496 0 0 0 -7.60974e-05 -3.96306e-05 2.67666e-05 4.63633e-05 6.4343e-05 -5.2501e-05 0.0203414 0.00206057 -0.00972605 0.004 300 0 
152 1 1 -0.00418176 -0.0390216 0.00390575 0 0 0 -7.20431e-05 -1.87821e-06 -3.09575e-05 3.98084e-05 0.000115217 -4.61501e-05 -0.00511374 -0.00452398 0.0156184 0.004 300 0 
23 1 1 0.0153495 -0.0358824 0.00391037 0 0 0 3.47815e-05 1.67114e-05 5.92962e-05 -1.76245e-05 6.85564e-05 0.000106098 0.00185745 0.000173502 0.00155065 0.004 300 0 
118 1 1 -0.0307533 -0.0342395 0.00392741 0 0 0 -4.84346e-05 3.82679e-05 2.65464e-05 6.92022e-05 1.83009e-05 -4.64845e-05 -0.00527343 -0.00380331 0.00683058 0.004 300 0 
30 1 1 -0.018878 -0.0333721 0.00395337 0 0 0 -9.87159e-05 5.25144e-05 3.91435e-05 7.35137e-05 1.02981e-05 -7.28721e-05 -0.0113896 -0.0168025 -0.00318465 0.004 300 0 
215 1 1 -0.00603668 -0.0313231 0.00390722 0 0 0 -2.53914e-05 -2.13804e-05 -2.45912e-05 -4.78356e-05 0.000169202 7.63765e-06 0.00634923 0.000812691 -0.0266498 0.004 300 0 
74 1 1 0.00184318 -0.03382 0.0039074 0 0 0 -1.54469e-05 -1.99935e-05 -2.64809e-05 -1.2296e-05 0.000168089 1.58194e-05 0.0039444 0.00463822 -0.0299547 0.004 300 0 
24 1 1 0.0091807 -0.0308342 0.00391937 0 0 0 -2.78272e-05 -6.06392e-05 -2.49672e-06 1.61531e-05 0.000137419 9.86764e-05 0.000422119 -0.0113397 0.0098299 0.004 300 0 
198 1 1 0.0259157 -0.0339284 0.00395418 0 0 0 0.000183846 6.5513e-05 8.77095e-05 -0.000279458 0.000167245 -3.07278e-05 -0.00541464 0.0271145 -0.00772723 0.004 300 0 
161 1 1 0.0335183 -0.0316203 0.00391877 0 0 0 6.08254e-05 6.00664e-05 8.01099e-05 -0.000223787 -6.64111e-05 3.22526e-06 -0.00246237 0.00273466 -0.00504858 0.004 300 0 
8 1 1 -0.0322716 -0.0264169 0.00398423 0 0 0 -9.37377e-06 5.49741e-05 2.40298e-05 9.98403e-05 1.35548e-05 5.66058e-07 0.0019463 0.00146859 0.00230296 0.004 300 0 
12 1 1 -0.0244156 -0.0276973 0.00386385 0 0 0 -3.74654e-05 9.90554e-05 6.21988e-05 7.31622e-05 3.30303e-05 -5.6869e-05 -0.0230835 -0.0048132 -0.00534013 0.004 300 0 
188 1 1 -0.013175 -0.0277762 0.00396667 0 0 0 -6.84173e-05 4.86319e-05 1.77041e-05 4.45954e-05 -4.90536e-05 -0.000184672 -0.00312314 -0.0124497 0.00621129 0.004 300 0 
77 1 1 -9.65915e-05 -0.0260828 0.00389648 0 0 0 -7.42988e-06 -1.52549e-05 -3.43778e-05 0.000188117 0.000158231 1.88152e-05 0.0028 0.00237665 0.0254331 0.004 300 0 
113 1 1 0.0165692 -0.0280209 0.00388797 0 0 0 -7.37562e-05 8.57372e-05 7.22554e-05 6.35435e-05 6.60409e-05 8.76693e-05 -0.00980714 -0.0250121 0.0498534 0.004 300 0 
183 1 1 0.0384474 -0.025384 0.00393794 0 0 0 5.92012e-05 1.19622e-05 0.000119733 -0.000151479 -0.000177077 -1.76079e-06 -0.00103794 0.0274905 -0.0196373 0.004 300 0 
162 1 1 -0.0396315 -0.0234166 0.00390918 0 0 0 7.81062e-06 3.81e-05 4.2601e-05 -1.9035e-05 1.54071e-05 -4.61027e-06 -0.00852962 0.00120594 0.00803472 0.004 300 0 
53 1 1 -0.0272089 -0.0202494 0.00395287 0 0 0 -6.26978e-05 0.000100429 5.40702e-05 -2.35216e-05 4.57924e-05 -0.000131997 -0.00137837 -0.00474822 0.0214996 0.004 300 0 
148 1 1 -0.0187597 -0.0220652 0.00393834 0 0 0 -0.000125656 5.05825e-05 -2.30224e-05 0.000193708 4.85771e-05 -0.000129363 -0.00840638 -0.0113161 0.0281925 0.004 300 0 
195 1 1 -0.00727781 -0.021551 0.00394718 0 0 0 -6.68364e-05 8.24553e-05 -0.000116654 7.98322e-05 0.000153532 -4.4154e-05 -0.0160665 -0.0102145 0.104502 0.004 300 0 
179 1 1 0.00736541 -0.0231039 0.00394286 0 0 0 -4.37072e-05 -9.66067e-06 4.17122e-05 0.00022837 0.000201868 0.00016196 0.018311 -0.0225442 -0.00350696 0.004 300 0 
95 1 1 0.0148498 -0.0203108 0.00393127 0 0 0 7.2737e-05 1.78039e-06 0.000129552 0.000159263 0.000172223 -1.70643e-05 0.0194728 0.0130466 -0.0730213 0.004 300 0 
76 1 1 0.0230029 -0.0233041 0.00397284 0 0 0 8.94709e-05 0.000235746 0.000234029 -5.89794e-05 -0.000166219 3.21123e-05 -0.0433466 -0.012775 -0.0529674 0.004 300 0 
100 1 1 0.0325583 -0.0200913 0.00388487 0 0 0 8.67387e-05 0.000122723 0.000208357 -0.000148789 -9.22943e-05 0.000249425 -0.0417686 0.024028 0.0208517 0.004 300 0 
65 1 1 -0.0430758 -0.0162785 0.00393402 0 0 0 -4.76776e-06 2.90845e-05 7.14161e-06 -2.48113e-05 5.42309e-05 -3.76717e-05 -0.00566109 0.000307218 0.000273587 0.004 300 0 
102 1 1 -0.0351608 -0.0155069 0.00394489 0 0 0 -4.01211e-05 6.33737e-05 6.77124e-05 1.07026e-05 0.000156806 -0.00010823 -0.0275246 -0.017702 0.00332814 0.004 300 0 
213 1 1 -0.0132592 -0.0162746 0.00397347 0 0 0 -0.000111104 3.15739e-05 -5.57692e-05 -9.21542e-06 -0.000125678 -0.000109321 0.0204793 -0.00772099 -0.0784589 0.004 300 0 
10 1 1 0.00114687 -0.0182541 0.00475091 0 0 0 -7.58317e-05 -4.57776e-05 5.65896e-05 0.000214862 0.000169812 7.22018e-05 0.0194527 0.0013462 0.00231837 0.004 300 0 
5 1 1 0.00879687 -0.0152573 0.00390382 0 0 0 6.45003e-05 9.00727e-05 0.000166598 -1.46419e-05 0.00010303 0.000194752 -0.016089 -0.00934301 0.043521 0.004 300 0 
96 1 1 0.0211679 -0.0155241 0.003955 0 0 0 0.00022557 -6.25472e-06 0.000140568 -8.4677e-05 0.000286143 -5.68197e-05 0.0287276 0.0459432 0.05677 0.004 300 0 
167 1 1 0.0421898 -0.0183753 0.00392025 0 0 0 -4.60762e-05 -4.04928e-05 0.000115506 2.47133e-05 -0.00017733 0.000247925 0.0307954 -0.0223246 0.0211295 0.004 300 0 
124 1 1 -0.0290072 -0.0104708 0.00394641 0 0 0 -2.89509e-05 8.95281e-05 8.60396e-05 3.83691e-05 8.15232e-05 2.54596e-06 -0.0145649 -0.020049 -0.0105026 0.004 300 0 
220 1 1 -0.0217762 -0.0144562 0.00398136 0 0 0 6.81954e-06 0.000177619 0.000156182 6.64442e-05 9.37787e-05 0.00014706 -0.00258273 -0.0317608 -0.0301206 0.004 300 0 
144 1 1 -0.00535558 -0.0138041 0.00388197 0 0 0 4.08111e-05 3.0311e-05 0.000171707 1.30275e-05 -0.000146252 -1.33116e-05 -0.00784292 0.017464 -0.0524651 0.004 300 0 
26 1 1 0.00255491 -0.0104644 0.00390648 0 0 0 0.000112005 -1.51943e-05 8.90425e-05 -4.84084e-05 7.6201e-05 1.74406e-05 0.002011 0.0205131 -0.03234 0.004 300 0 
194 1 1 0.0287345 -0.0131044 0.00392984 0 0 0 0.000137207 6.04632e-06 0.000135238 0.000180324 6.37117e-05 0.000274034 0.0254778 -0.000848005 -0.0581813 0.004 300 0 
37 1 1 0.0366698 -0.0122342 0.00393322 0 0 0 -9.44667e-06 0.00020711 0.000142678 -1.75322e-05 -0.000115356 0.000469371 -0.049368 -0.00725081 0.190823 0.004 300 0 
219 1 1 0.0447283 -0.0108763 0.00390755 0 0 0 -8.13222e-05 3.45803e-05 0.000122943 0.000228839 -0.000204719 2.66259e-05 -0.059237 -0.00488257 -0.00331333 0.004 300 0 
636 1 1 -0.0451996 -0.00864092 0.00392113 0 0 0 -3.94961e-05 2.30438e-05 -2.29495e-05 -4.14378e-05 3.998e-05 -4.12434e-05 -0.00534401 -0.00538989 0.0131736 0.004 300 0 
39 1 1 -0.016147 -0.00885172 0.00388953 0 0 0 0.000143656 0.000159254 4.24442e-05 0.000119397 -8.22758e-05 3.16576e-05 -0.0240229 0.0263221 0.00143876 0.004 300 0 
171 1 1 -0.00395993 -0.00597877 0.00392032 0 0 0 0.00017692 3.73016e-05 6.2788e-05 -5.6193e-05 -2.47691e-05 -1.19936e-05 -0.0233707 0.0181147 0.0180166 0.004 300 0 
200 1 1 0.0146277 -0.00986477 0.00396432 0 0 0 4.68312e-05 0.000149838 0.000276706 3.84745e-05 -4.73935e-05 -3.28598e-05 -0.0395657 -0.0342887 -0.046651 0.004 300 0 
21 1 1 0.0222505 -0.00762112 0.00394243 0 0 0 0.000188668 3.73672e-05 0.000185952 -0.000110677 -0.00026984 -7.12297e-05 -0.00445581 0.0424611 -0.00689767 0.004 300 0 
17 1 1 0.0298461 -0.0052092 0.00394851 0 0 0 0.000269384 1.86306e-05 5.37648e-05 0.000132411 -6.39125e-06 0.000119679 -0.015709 0.0348024 -0.00225542 0.004 300 0 
477 1 1 -0.0445895 -0.000710306 0.00396453 0 0 0 -4.06919e-05 2.70994e-05 -4.27292e-05 -6.82884e-05 5.68828e-05 -4.37954e-05 -0.00173998 -0.00924313 -0.018124 0.004 300 0 
140 1 1 -0.0352687 -0.00371677 0.00387177 0 0 0 5.57471e-05 0.000170346 -9.43901e-06 2.33764e-05 0.000235844 -7.72639e-06 -0.0247196 0.0104646 0.00228818 0.004 300 0 
119 1 1 -0.0273901 -0.00269739 0.00396339 0 0 0 0.00011328 0.000140436 2.99826e-06 0.000291224 3.93563e-05 0.000214258 -0.0201213 -0.0101205 -0.0144503 0.004 300 0 
207 1 1 -0.0194913 -0.00168749 0.00389467 0 0 0 0.000234658 0.000169785 5.30294e-06 0.000332398 0.000127053 1.63607e-05 -0.0289707 0.0448187 -0.0107563 0.004 300 0 
69 1 1 -0.0111575 -0.00264577 0.0039299 0 0 0 0.000249111 0.000115566 4.57e-05 5.18932e-05 -0.000136878 -0.000105687 -0.00696191 0.0304528 -0.0384969 0.004 300 0 
221 1 1 0.00874742 -0.00448666 0.00393175 0 0 0 7.46798e-05 -7.0013e-05 0.000118772 0.000255408 0.000229344 0.000201429 0.0420146 0.0174104 -0.0166553 0.004 300 0 
457 1 1 0.0163513 -0.0020802 0.0039601 0 0 0 6.37412e-05 1.91095e-05 9.76775e-05 0.000497948 -8.41254e-05 2.35504e-05 -0.0191698 0.00322313 0.0311478 0.004 300 0 
155 1 1 0.0378921 -0.00224939 0.00393588 0 0 0 -0.000351518 0.000275245 0.00026026 0.000177945 -0.000100334 -0.000148273 -0.0870645 -0.0723768 -0.20336 0.004 300 0 
665 1 1 0.0459175 -0.0030789 0.00394222 0 0 0 -1.47561e-05 -6.25102e-05 3.82302e-05 3.29481e-05 -0.0002801 -0.000182576 0.0386962 -0.00881752 -0.0193889 0.004 300 0 
120 1 1 0.0091844 -0.0371101 0.00876627 0 0 0 5.98861e-06 -0.000118206 -4.55953e-05 -0.00017039 0.000305152 0.00013703 0.023252 -0.0377637 0.0337914 0.004 300 0 
9 1 1 -0.0247141 -0.0333589 0.00937701 0 0 0 -8.70139e-05 8.7472e-05 7.75333e-05 9.9082e-05 -2.14939e-05 -0.000113711 0.0123025 0.00374231 -0.00669118 0.004 300 0 
101 1 1 -0.0188642 -0.0277192 0.00955251 0 0 0 -2.29147e-05 0.000168231 1.30138e-05 0.000177887 -1.02292e-05 -0.000156343 -0.0185689 0.0276286 -0.0297687 0.004 300 0 
48 1 1 0.0221952 -0.0292975 0.00922187 0 0 0 3.06039e-06 5.05329e-05 -3.80234e-06 1.71844e-05 0.00034721 0.000507865 0.110393 0.0278548 -0.00482409 0.004 300 0 
75 1 1 0.0293574 -0.0261762 0.00787095 0 0 0 7.18494e-05 9.50548e-05 0.000222705 -0.000154457 2.42056e-05 0.000432148 0.0683416 -0.0124339 -0.0276605 0.004 300 0 
46 1 1 -0.0327976 -0.020574 0.00958412 0 0 0 -3.22692e-05 0.000117066 0.000186833 -0.000133188 0.000122517 -0.000243765 -0.00782425 0.0269849 -0.0145927 0.004 300 0 
33 1 1 -0.0130335 -0.022025 0.00949617 0 0 0 -0.000112522 0.000199365 -0.000119713 0.000297029 -3.00187e-05 -0.000128649 -0.0488855 0.0436299 0.0272006 0.004 300 0 
11 1 1 0.0268897 -0.0187454 0.00924117 0 0 0 9.63114e-05 0.000410077 0.000309984 -7.84143e-06 -0.000108178 0.000433743 -0.0839641 -0.0115586 0.00387022 0.004 300 0 
71 1 1 -0.0372784 -0.0095394 0.00877258 0 0 0 -8.89969e-06 0.000174109 -4.39187e-05 3.44216e-05 0.000298337 -0.000101286 0.0127337 -0.00311225 -0.0209519 0.004 300 0 
62 1 1 -0.0228073 -0.00771219 0.00813934 0 0 0 0.000142172 0.000272208 9.46931e-05 0.000452888 2.826e-05 0.000249716 -0.0396778 0.0289457 -0.00584502 0.004 300 0 
19 1 1 -0.00970703 -0.00905652 0.00849122 0 0 0 0.000241834 0.000165424 4.19637e-05 6.57014e-05 -0.000224881 -6.83433e-05 -0.0166277 -0.0237315 -0.0188648 0.004 300 0 
187 1 1 0.00796875 -0.00988061 0.0097554 0 0 0 9.23067e-05 6.71523e-05 0.000243456 -0.000206861 0.000359272 0.000600018 -0.0603803 0.020036 0.00518995 0.004 300 0 
157 1 1 0.0395845 -0.00752141 0.00962735 0 0 0 -0.000588741 0.000185062 0.000406683 1.37252e-05 -0.000160344 0.00012361 0.118252 0.0799886 0.0970559 0.004 300 0 
18 1 1 0.00229111 -0.00405058 0.00852746 0 0 0 0.000196146 -1.78173e-05 3.51962e-05 1.51222e-05 -7.39463e-05 -0.000100908 -0.0242513 0.00623274 0.0316111 0.004 300 0 
185 1 1 -0.00531061 -0.045735 0.0104433 0 0 0 -1.19814e-05 2.50986e-07 3.18286e-05 -2.46035e-05 7.66611e-05 -0.000107025 0.00509191 0.020758 -0.0210372 0.004 300 0 
83 1 1 0.00256781 -0.0459482 0.0112609 0 0 0 -1.94951e-05 -0.000166185 -5.00737e-06 -5.32121e-06 0.000283098 -8.43289e-05 -0.0085418 -0.0215072 -0.0095976 0.004 300 0 
58 1 1 -0.021856 -0.0405821 0.0112767 0 0 0 -9.54208e-05 8.94521e-05 6.48386e-05 -2.90026e-05 -2.36881e-05 4.82124e-05 0.00697315 -0.0112216 0.026614 0.004 300 0 
105 1 1 -0.013585 -0.043966 0.0108784 0 0 0 1.58608e-05 -9.33382e-05 7.37517e-05 0.00010336 5.32143e-05 -5.6795e-05 0.0309786 0.0206178 -0.0100244 0.004 300 0 
223 1 1 0.0103952 -0.0448694 0.0106656 0 0 0 -2.8381e-05 -8.79459e-05 3.22966e-05 -1.34513e-05 0.000207027 -3.77317e-05 0.00994254 0.0120442 0.0275687 0.004 300 0 
217 1 1 0.0179406 -0.0424258 0.0108325 0 0 0 5.99553e-06 2.20965e-05 -2.97641e-05 -4.68218e-05 9.29006e-05 6.61516e-05 -0.0116956 0.00554441 -0.00563999 0.004 300 0 
6 1 1 -0.0162609 -0.03503 0.0113136 0 0 0 -0.000156489 0.000143157 -4.41149e-05 2.57245e-06 -2.12369e-05 7.57489e-05 -0.00994818 0.0536079 -0.0107493 0.004 300 0 
151 1 1 -0.00801175 -0.03826 0.0108128 0 0 0 -6.17004e-05 3.24246e-05 1.37014e-05 4.78729e-05 0.000112856 -6.62437e-05 -0.0281942 0.0124886 0.039704 0.004 300 0 
2 1 1 0.000445285 -0.0383084 0.0102721 0 0 0 -9.12501e-05 -0.000110755 -0.000118364 -4.01966e-05 0.000280345 -4.20845e-06 0.0385893 0.0144243 -0.0331717 0.004 300 0 
117 1 1 0.0249158 -0.0387321 0.010921 0 0 0 3.01911e-05 7.19997e-05 4.48542e-05 -7.36441e-05 -1.58499e-05 0.000153656 0.012761 -0.0181576 0.0183243 0.004 300 0 
13 1 1 -0.0323455 -0.0327543 0.0115378 0 0 0 -4.35406e-05 8.28353e-05 8.80116e-05 3.98006e-05 -1.19909e-06 -0.00010933 0.00352734 0.00507117 -0.000732337 0.004 300 0 
193 1 1 -0.00982443 -0.0305003 0.0107707 0 0 0 -0.000192006 0.000100745 -0.000153643 -1.61993e-07 8.67753e-05 0.000160647 -0.0238095 -0.0524638 0.00471447 0.004 300 0 
47 1 1 -0.0013396 -0.0305462 0.010385 0 0 0 -2.29857e-05 5.56694e-05 -8.17444e-05 1.32092e-05 0.000119175 7.22215e-05 -0.0268219 -0.018459 0.0221869 0.004 300 0 
153 1 1 0.00656558 -0.0300261 0.0113667 0 0 0 -9.03142e-05 -2.46893e-05 -8.21572e-06 -1.43963e-06 -5.66041e-05 0.000300864 0.0132119 0.0034095 -0.0548261 0.004 300 0 
41 1 1 0.0148058 -0.0317935 0.0106516 0 0 0 2.71975e-05 4.2597e-05 5.4147e-05 9.83449e-05 0.000126585 0.000242603 -0.018684 0.0236804 0.0169089 0.004 300 0 
163 1 1 0.0311476 -0.0339213 0.0111293 0 0 0 4.62154e-05 9.63939e-05 0.000185975 -0.000168327 -0.000175707 0.000107851 0.0178862 0.0136675 -0.0301186 0.004 300 0 
214 1 1 -0.0375018 -0.0268251 0.0107158 0 0 0 -2.17782e-05 8.10123e-05 0.000122885 -7.02155e-05 2.10696e-05 -8.85329e-05 0.012258 -0.0297183 0.0119694 0.004 300 0 
210 1 1 0.0364642 -0.0281024 0.0111142 0 0 0 2.13886e-05 -3.87215e-05 0.00027153 -2.24884e-05 -0.000188233 -0.00032111 0.0203434 0.00453677 -0.00687241 0.004 300 0 
108 1 1 -0.0260974 -0.0246379 0.0109262 0 0 0 -1.85493e-05 0.000196307 8.09329e-05 2.37624e-05 0.000182788 -0.000251564 -0.000792572 0.00791622 0.0126729 0.004 300 0 
40 1 1 -0.00550864 -0.0238699 0.011332 0 0 0 -0.000109207 0.000114607 -0.000204742 0.000190953 8.30536e-05 0.000108819 0.0284449 -0.021355 -0.0269608 0.004 300 0 
55 1 1 0.00236822 -0.0232846 0.0108301 0 0 0 -0.000153358 4.96777e-05 3.37771e-05 0.000124806 -6.65611e-05 0.000550661 -0.00187934 -0.0396599 0.0266712 0.004 300 0 
91 1 1 0.0120904 -0.0243847 0.0101852 0 0 0 -7.7376e-05 -2.75224e-05 7.62653e-05 0.000183971 0.00019145 0.000230613 0.00788667 0.00298225 0.0158879 0.004 300 0 
112 1 1 0.0192813 -0.020539 0.0105015 0 0 0 3.99423e-05 0.000247214 0.00025263 0.000127149 -2.63792e-05 -0.000125922 -0.0704206 -0.0519235 0.0923475 0.004 300 0 
178 1 1 0.0318567 -0.0225326 0.0144787 0 0 0 -0.000146635 0.000130034 3.92119e-05 0.000192184 -0.000127024 0.000963079 -0.119461 -0.0511535 -0.00991712 0.004 300 0 
131 1 1 0.0407733 -0.021474 0.011048 0 0 0 -3.60682e-05 -9.55856e-05 0.000182157 8.29169e-05 -0.000243857 -0.000110015 -0.00465079 0.0345059 0.015227 0.004 300 0 
160 1 1 -0.0414731 -0.0199366 0.0108146 0 0 0 2.70983e-05 9.14779e-05 4.31451e-05 -6.30408e-05 4.05912e-05 -4.89586e-05 -0.0142248 0.00663357 -0.00476647 0.004 300 0 
43 1 1 -0.0361108 -0.015094 0.0142649 0 0 0 1.37514e-06 0.000268151 4.67385e-05 2.80653e-05 0.000190442 -0.000207382 -0.0508548 0.00316034 0.0297154 0.004 300 0 
4 1 1 -0.0270358 -0.0151158 0.0100737 0 0 0 -3.52657e-05 0.000106674 5.75926e-05 0.000138047 0.000133553 -0.00028833 0.00737447 0.0319065 0.0211356 0.004 300 0 
104 1 1 -0.020303 -0.0192309 0.0111974 0 0 0 1.56787e-05 0.000187286 -5.64788e-05 0.000160966 6.94728e-05 -0.000142171 -0.0172857 0.0293307 -0.0228958 0.004 300 0 
20 1 1 -0.00745702 -0.0162235 0.0110934 0 0 0 0.000299203 0.000308783 0.000497224 0.000202484 -4.60974e-05 0.000223673 -0.0662315 0.0712668 -0.00278069 0.004 300 0 
45 1 1 0.00082803 -0.016451 0.0146078 0 0 0 0.000193222 9.27276e-06 0.000222294 -0.000131671 -0.000147407 0.000127386 0.000821385 0.100841 -0.0852986 0.004 300 0 
159 1 1 0.0079566 -0.0177045 0.0113517 0 0 0 -0.000117284 -3.77537e-05 0.000186074 6.01973e-05 -6.47227e-05 0.000305197 0.0731535 -0.0519871 -0.00495827 0.004 300 0 
136 1 1 0.0347914 -0.0163427 0.0104657 0 0 0 0.000108627 0.000111657 0.000469056 -0.000200593 -0.000197212 0.000627327 0.065509 -0.021872 -0.0557004 0.004 300 0 
177 1 1 -0.0443291 -0.0125254 0.0108184 0 0 0 2.40896e-06 8.62212e-05 -1.91066e-05 -3.13733e-05 9.68458e-05 -0.000115636 -0.00667054 0.0065656 0.0169016 0.004 300 0 
139 1 1 -0.0168217 -0.0121098 0.0110429 0 0 0 0.000227563 0.000291806 3.80375e-06 0.000382066 -3.65849e-05 7.31011e-05 0.0132521 -0.0042021 0.016664 0.004 300 0 
211 1 1 -0.0020956 -0.0104161 0.0103101 0 0 0 0.000232385 5.02001e-05 0.00017909 -8.86721e-05 2.82888e-05 -0.00011249 -0.0164647 -0.00580198 -0.0199881 0.004 300 0 
54 1 1 0.0149213 -0.013897 0.0108297 0 0 0 -8.43634e-05 0.000100328 0.000353663 -0.000232155 -5.36019e-05 3.35974e-05 0.0483215 0.102075 -0.0462186 0.004 300 0 
84 1 1 0.0232724 -0.0118016 0.0106561 0 0 0 0.000174895 0.000137287 0.000324803 -0.000131023 -0.000435682 0.000500515 -0.0298405 -0.0588144 -0.0136416 0.004 300 0 
180 1 1 0.0438185 -0.0141049 0.0110431 0 0 0 -0.000243292 0.000131355 0.000345337 -6.66517e-05 7.14573e-06 -3.62866e-05 0.0567656 -0.02797 0.0189714 0.004 300 0 
103 1 1 0.0174462 -0.00636622 0.0105733 0 0 0 0.000215274 -2.37912e-06 0.000186273 4.48855e-05 -0.000263602 8.59608e-05 0.023609 0.019411 -0.00580058 0.004 300 0 
156 1 1 0.0308884 -0.00946536 0.01063 0 0 0 0.000280655 7.87179e-05 0.000474058 -0.000220571 -3.07585e-05 0.00036191 -0.0892188 0.00478242 -0.0138814 0.004 300 0 
197 1 1 -0.0457819 -0.0047078 0.0107639 0 0 0 -5.02206e-05 6.04126e-05 -7.70009e-05 -8.85479e-05 8.04273e-05 -6.83253e-05 -0.00977479 0.0141876 0.012843 0.004 300 0 
87 1 1 -0.0386041 -0.00380049 0.0141437 0 0 0 0.000100421 0.000235267 -0.000142237 -9.05558e-05 0.000360433 -0.000140675 0.00103248 -0.00343029 -4.19119e-06 0.004 300 0 
130 1 1 -0.0313602 -0.00387112 0.0107765 0 0 0 0.000144977 0.000328764 -8.40889e-05 1.28152e-05 0.000332284 0.000144919 -0.00236202 0.00838316 -0.0144277 0.004 300 0 
604 1 1 -0.0224592 -0.000299577 0.0110783 0 0 0 0.000429029 0.000324284 -7.37297e-05 0.000356353 0.000162976 1.38761e-05 -0.00788645 -0.00506637 -0.00739553 0.004 300 0 
146 1 1 -0.0155081 -0.00400686 0.0103908 0 0 0 0.000404545 0.000178128 -4.33721e-05 0.000350548 4.93878e-05 2.29314e-05 0.056769 -0.0116764 -0.00885615 0.004 300 0 
57 1 1 -0.00517538 -0.0031064 0.011194 0 0 0 0.000329689 -2.58947e-05 0.000193763 -7.36129e-06 8.41558e-05 9.91396e-05 0.0561095 0.00083913 -0.0376008 0.004 300 0 
493 1 1 0.011704 -0.000870916 0.0103612 0 0 0 0.000181871 -1.73245e-05 0.00019317 0.000303493 0.000280676 3.20467e-05 -0.105107 -0.041059 -0.0514855 0.004 300 0 
31 1 1 0.0250511 -0.00405447 0.0104566 0 0 0 0.000325164 -2.86973e-05 0.000100965 -0.000129212 -0.000224027 0.000103773 0.00109675 0.0011187 9.36963e-05 0.004 300 0 
588 1 1 0.0326019 -0.00174873 0.0105425 0 0 0 0.000306662 -1.56158e-05 0.00013085 5.70332e-05 -0.0003977 0.000276698 0.0459674 -0.0164645 0.00468863 0.004 300 0 
63 1 1 0.0459254 -0.00328092 0.0119227 0 0 0 -0.000187663 5.25491e-05 0.000106698 -0.000141015 6.8153e-05 -4.6908e-05 -0.0892073 0.000690773 -0.08459 0.004 300 0 
107 1 1 -0.00849875 -0.0452736 0.0176786 0 0 0 -5.07216e-05 7.56802e-06 7.78316e-05 -3.518e-05 -3.67548e-06 -0.000234445 0.013094 -0.00780931 0.0014272 0.004 300 0 
222 1 1 -0.00141332 -0.0418049 0.0171196 0 0 0 -0.000161142 1.10374e-05 -5.30144e-05 4.27263e-05 -5.65451e-05 -0.000117726 -0.0577485 -0.00516177 0.00137175 0.004 300 0 
142 1 1 0.00616213 -0.0401437 0.0154176 0 0 0 -0.000116619 -4.6361e-05 -8.89817e-05 1.50414e-05 0.000185751 0.000154092 -0.0724787 -0.0205258 0.00734933 0.004 300 0 
172 1 1 0.0116045 -0.0446417 0.0189626 0 0 0 -4.51902e-05 -1.49777e-05 -6.97574e-05 -3.97706e-06 0.000255538 0.000297025 -0.0114631 0.00748228 0.0115738 0.004 300 0 
109 1 1 0.0203964 -0.0412921 0.0183352 0 0 0 -3.54581e-05 2.36088e-06 -1.37115e-05 8.01533e-06 -1.33662e-05 -9.13478e-05 0.0186227 -0.0218361 0.0209517 0.004 300 0 
150 1 1 -0.0273273 -0.037083 0.0158763 0 0 0 -6.59921e-05 7.87311e-05 5.88559e-05 1.64716e-05 -7.94954e-06 -3.61495e-05 -0.00325085 0.00439466 0.00471391 0.004 300 0 
38 1 1 -0.0197785 -0.0373721 0.0182809 0 0 0 -7.01479e-05 0.0002847 -6.82095e-05 5.37529e-05 5.14081e-05 -6.96401e-05 -0.053833 0.0368227 0.00721592 0.004 300 0 
199 1 1 -0.0118534 -0.0370319 0.0176514 0 0 0 -0.000178573 0.0002229 -4.32751e-05 -1.77104e-05 1.2126e-05 -9.61768e-05 -0.0307786 -0.0458178 -0.0345718 0.004 300 0 
93 1 1 0.0137614 -0.0377739 0.0156806 0 0 0 4.06702e-05 1.26576e-05 1.32339e-05 7.81384e-05 0.00020188 0.000278599 0.0414821 -0.0104397 -0.0323844 0.004 300 0 
64 1 1 0.0279842 -0.0365251 0.0179464 0 0 0 7.88957e-05 4.66185e-05 0.000100323 1.25474e-05 -0.00010154 0.000430021 0.0524798 0.0237921 -0.0349887 0.004 300 0 
22 1 1 -0.0327419 -0.0324225 0.0194583 0 0 0 -1.14046e-05 0.000169993 0.000111457 -2.09789e-05 1.90165e-05 -0.000159576 -0.000769718 -0.00882939 0.0265591 0.004 300 0 
174 1 1 -0.0224328 -0.03021 0.0162631 0 0 0 -3.49467e-05 0.000394675 -3.08369e-05 0.000155861 -0.000157208 -0.000207664 0.0460478 0.0374509 -0.0355258 0.004 300 0 
32 1 1 -0.00428336 -0.0343942 0.016682 0 0 0 9.00523e-06 0.000143952 -0.000110739 4.24978e-05 -0.000145443 0.000100323 0.0103566 0.0262089 -0.0458284 0.004 300 0 
128 1 1 0.00347641 -0.0331395 0.0179959 0 0 0 -6.43763e-05 -1.50401e-05 -0.000140978 -1.52755e-05 -0.000219757 0.000606115 0.0579016 0.0208672 0.00109208 0.004 300 0 
88 1 1 0.0113749 -0.0304782 0.0177085 0 0 0 2.45115e-05 -5.04303e-05 3.4463e-05 -5.28016e-05 -8.73418e-06 0.000420743 -0.0465743 0.00133581 0.0795683 0.004 300 0 
137 1 1 0.0207615 -0.0338428 0.015619 0 0 0 -1.51372e-05 3.43339e-05 -0.000141059 -0.000199463 0.000108442 0.000300587 -0.0503317 -0.0242199 -0.010228 0.004 300 0 
154 1 1 0.033985 -0.0311404 0.0180553 0 0 0 -0.000102145 0.000109987 0.000332774 0.00010014 0.000102042 2.60574e-05 0.0336222 0.0418532 -0.0256724 0.004 300 0 
52 1 1 -0.0319907 -0.0252358 0.0161647 0 0 0 -2.07697e-05 0.000205157 0.000140751 -8.20397e-05 7.79504e-05 -0.00022925 -0.0204512 0.015462 0.000641785 0.004 300 0 
80 1 1 -0.00960198 -0.0265075 0.0175844 0 0 0 0.000127534 0.000241214 -0.000165897 0.000151643 -0.000139274 4.95712e-05 -0.0256653 0.108977 -0.0626204 0.004 300 0 
125 1 1 -0.00116218 -0.0267002 0.0173711 0 0 0 -0.000373068 1.9512e-05 9.6147e-05 0.000320414 -0.000323321 0.000283521 0.0480782 -0.0896437 0.0573392 0.004 300 0 
72 1 1 0.0179357 -0.0264367 0.0156266 0 0 0 7.43722e-05 8.51261e-05 1.04888e-05 -0.000265839 0.000200712 0.000106742 0.0816817 -0.00965846 -0.0187941 0.004 300 0 
34 1 1 0.0269542 -0.0287353 0.0154503 0 0 0 -0.000151515 0.00011355 0.00018919 0.000162613 7.96964e-05 0.000821402 -0.102863 -0.0703351 0.0476732 0.004 300 0 
218 1 1 -0.0395971 -0.0234619 0.0176937 0 0 0 1.85346e-05 0.0001461 9.31884e-05 -8.37348e-05 -1.09111e-05 -0.000100655 0.00674499 -0.019507 0.0126117 0.004 300 0 
70 1 1 -0.0247176 -0.0230233 0.0185732 0 0 0 3.25137e-05 0.000354686 6.65341e-05 -1.26143e-05 -6.73433e-05 -0.000177182 -0.0231039 -0.0103105 0.00591634 0.004 300 0 
132 1 1 -0.0171319 -0.0242618 0.0164749 0 0 0 6.92128e-05 0.000337976 -3.1734e-05 -3.35567e-05 -7.77942e-05 -0.00016919 -0.0259399 -0.0256462 0.023317 0.004 300 0 
196 1 1 0.0071725 -0.0237843 0.0170743 0 0 0 -0.000159317 -0.000234514 0.000148013 -0.000134061 -0.000394847 0.000632715 0.0911726 0.0530597 -0.051986 0.004 300 0 
362 1 1 0.0243917 -0.0214389 0.0171054 0 0 0 -0.000418466 0.000290221 -0.000247715 0.000709887 -0.000479888 0.00160489 0.0567782 -0.0612583 -0.0326883 0.004 300 0 
49 1 1 0.0387627 -0.0248044 0.0179783 0 0 0 -2.3008e-05 -6.96448e-05 0.000260188 0.000521784 -0.000266375 -0.00046578 -0.0257878 0.00120434 -0.0138311 0.004 300 0 
173 1 1 -0.0431201 -0.0163108 0.0177155 0 0 0 1.54266e-05 0.000136697 2.97603e-05 3.11162e-05 0.000141246 -0.000117348 -0.00376449 -0.0111569 0.0234642 0.004 300 0 
50 1 1 -0.0295071 -0.0167641 0.0182834 0 0 0 4.84237e-05 0.000395741 -2.06602e-05 7.14023e-05 0.000132328 -0.000265018 0.00327792 0.0178592 -0.0179376 0.004 300 0 
202 1 1 -0.0134614 -0.0172143 0.0161133 0 0 0 0.000171081 0.000384329 0.000172628 0.000196424 -0.000233589 3.2721e-05 0.00241366 -0.13681 0.0582442 0.004 300 0 
86 1 1 -0.00524417 -0.0199214 0.0183793 0 0 0 3.83461e-05 0.000259131 -0.000150281 5.76812e-05 -0.000330699 0.000304226 0.0868228 -0.163608 -0.04038 0.004 300 0 
129 1 1 0.0138699 -0.0196338 0.0162853 0 0 0 -0.000207176 -9.43949e-05 0.000145492 3.80533e-05 -0.000350075 0.000337123 0.0309431 0.0117978 0.0915551 0.004 300 0 
82 1 1 0.0291373 -0.0151439 0.0159317 0 0 0 -7.22191e-06 0.00028421 0.000919329 0.000179197 0.000177123 0.000536521 0.143865 -0.0183441 -0.0450888 0.004 300 0 
1 1 1 0.0424661 -0.0178086 0.0178752 0 0 0 -0.000205001 -0.00016298 0.000210447 0.000195886 -0.000266054 -3.20429e-05 0.0241273 -0.00457101 0.0512797 0.004 300 0 
168 1 1 -0.0224803 -0.0136296 0.0164161 0 0 0 9.63117e-05 0.000250967 -0.000125411 0.000257679 5.87617e-05 -0.000119561 -0.0314983 -0.000592871 -0.00383777 0.004 300 0 
121 1 1 -0.00515352 -0.0120263 0.0174579 0 0 0 0.000668544 0.000293126 0.000462132 -0.000516407 -0.000192686 -0.000328766 0.0484159 -0.0383929 -0.0666355 0.004 300 0 
28 1 1 0.00813996 -0.0139746 0.0183214 0 0 0 0.000408711 -0.000883597 0.000527108 -0.000421153 -0.000316611 0.000391011 0.120401 0.0224275 -0.288855 0.004 300 0 
42 1 1 0.0200535 -0.0148163 0.0172633 0 0 0 -0.000378779 0.00027984 0.000246801 0.000340838 -0.000416902 0.000613329 0.10748 0.0680205 0.00609889 0.004 300 0 
60 1 1 0.0376301 -0.0116466 0.0161639 0 0 0 -0.000669421 0.000186898 0.00090154 -8.4468e-05 -0.00023434 0.000782944 -0.139879 -0.213022 0.0184763 0.004 300 0 
135 1 1 -0.0452101 -0.00864347 0.017686 0 0 0 7.86451e-06 8.4517e-05 -4.59947e-05 -2.55512e-06 9.80533e-05 -0.000155446 -0.00490585 -0.00128169 0.00902521 0.004 300 0 
81 1 1 -0.0376102 -0.00944777 0.0199523 0 0 0 0.000137351 0.000352228 7.37561e-05 7.20049e-05 0.000310579 -0.000346584 0.0895642 -0.0294409 0.0479465 0.004 300 0 
190 1 1 -0.0303512 -0.00906327 0.0166823 0 0 0 0.000196807 0.000462258 -9.72389e-05 4.46825e-05 0.000216399 -7.7096e-05 -0.0293781 0.0593265 -0.0396362 0.004 300 0 
7 1 1 -0.0204511 -0.00598359 0.0162531 0 0 0 0.000323889 0.000221465 -0.000261719 0.000350447 0.000142538 0.000139242 0.0185144 0.0265645 -0.0892396 0.004 300 0 
145 1 1 -0.0119899 -0.00832336 0.0160617 0 0 0 0.000551911 0.000223798 4.43875e-05 -3.53869e-05 5.39385e-05 -0.000234226 -0.0756204 -0.0760796 0.0686131 0.004 300 0 
186 1 1 0.00214526 -0.00892617 0.0168559 0 0 0 0.00115228 -0.000162161 -0.000448112 3.96306e-06 -0.000304911 -0.000413586 -0.0256038 0.283213 0.0260605 0.004 300 0 
56 1 1 0.0144224 -0.00917194 0.0173872 0 0 0 -0.000292913 8.06087e-05 -0.000212294 -0.000355671 -0.000355705 0.000807771 -0.185127 -0.190454 0.0741046 0.004 300 0 
191 1 1 0.0221407 -0.00719315 0.0170882 0 0 0 -4.37262e-05 0.000213189 0.000143278 -0.000385744 -0.000275532 0.000550905 -0.164153 -0.0760232 -0.045934 0.004 300 0 
208 1 1 0.0315239 -0.00611375 0.0178055 0 0 0 -0.000258978 0.000179936 0.000927409 -0.000212885 0.00079685 0.000683967 -0.00393901 -0.167146 0.03406 0.004 300 0 
92 1 1 0.0451147 -0.00920254 0.0172074 0 0 0 -0.000304961 0.000130391 0.000741812 -0.000221122 -0.000518577 0.000831345 -0.0129283 0.179965 -0.0259206 0.004 300 0 
192 1 1 -0.0460777 -0.000753236 0.0176253 0 0 0 -3.21846e-06 6.94609e-05 -0.000139308 -4.074e-05 0.000135312 -3.64104e-05 -0.00559355 0.0283331 0.0104622 0.004 300 0 
462 1 1 -0.0271594 -0.00181493 0.0172868 0 0 0 0.000324569 0.000420307 -0.000264205 0.000242049 0.000156005 0.000145159 -0.0219504 -0.0485019 -0.00592539 0.004 300 0 
450 1 1 -0.0128203 -0.000775125 0.018255 0 0 0 0.000304895 0.000320736 -0.000200339 -0.000436664 -0.000234399 -0.000120119 0.0317322 -0.0638262 -0.00279471 0.004 300 0 
111 1 1 -0.00563234 -0.00408864 0.0190532 0 0 0 0.000366626 -0.000233031 6.40807e-05 -0.000232669 -0.000192606 -0.000230296 0.011818 0.00486257 -0.116951 0.004 300 0 
622 1 1 0.00100657 -0.00113266 0.0157749 0 0 0 0.000593204 -0.000292846 -8.97966e-05 -1.98064e-05 -0.000268026 -0.000274513 0.0693605 0.130429 0.0259808 0.004 300 0 