ITEM: TIMESTEP
39200
ITEM: NUMBER OF ATOMS
890
ITEM: BOX BOUNDS mm mm mm
-0.05 0.05
-0.05 0.05
0 0.15
ITEM: ATOMS id type type x y z ix iy iz vx vy vz fx fy fz omegax omegay omegaz radius f_Temp[0] f_heatFlux[0] 
59 1 1 -0.000715548 -0.0460982 0.00395598 0 0 0 9.27723e-08 -1.87511e-07 -2.22836e-07 -3.6047e-08 -2.08972e-07 -4.28858e-08 -2.61e-05 -5.30193e-05 4.16757e-05 0.004 538.558 0.366537 
170 1 1 -0.0173498 -0.0426414 0.00397301 0 0 0 2.68383e-07 -2.69338e-07 -2.10138e-07 -1.08083e-07 -9.89595e-08 -5.72997e-08 -3.20872e-05 8.6603e-06 -5.95596e-05 0.004 418.149 3.38999 
15 1 1 -0.00975016 -0.0449638 0.00393397 0 0 0 8.78162e-08 -3.18185e-07 -1.26959e-07 6.64301e-08 -2.19965e-07 -2.33533e-07 5.99804e-05 1.15763e-05 4.4843e-06 0.004 452.556 2.85469 
116 1 1 0.00648761 -0.0428197 0.00395869 0 0 0 1.76679e-07 1.42467e-07 -9.56432e-08 -2.32121e-07 -5.13709e-07 -2.06645e-07 -7.11596e-05 1.64332e-05 -2.61139e-05 0.004 607.297 -1.46103 
158 1 1 0.0143627 -0.0437625 0.0038998 0 0 0 2.5532e-07 -9.84783e-08 -1.40545e-07 -1.47061e-07 -1.36545e-07 -5.1779e-08 1.68855e-05 4.2405e-05 -2.88614e-05 0.004 654.369 -2.51856 
98 1 1 0.0216779 -0.0406527 0.00394261 0 0 0 2.57482e-07 -1.39621e-07 -9.36531e-08 -2.9684e-07 -5.20899e-08 1.56095e-07 1.04802e-05 -1.15231e-05 -1.34316e-05 0.004 695.614 -3.11731 
169 1 1 -0.0244315 -0.0390659 0.00391427 0 0 0 3.2463e-07 -3.92973e-07 -4.01228e-07 -1.84907e-07 -9.39347e-08 1.75924e-08 -2.45641e-05 4.19837e-05 -4.43931e-05 0.004 378.553 3.45658 
89 1 1 -0.011812 -0.0369235 0.00395462 0 0 0 6.61108e-07 -4.82288e-07 -4.33289e-07 -3.70312e-07 -2.79943e-07 -1.06153e-07 1.20026e-05 -9.89717e-06 0.000109021 0.004 443.085 2.60533 
152 1 1 -0.00418342 -0.0390223 0.00390524 0 0 0 6.75686e-07 -4.75589e-07 -4.773e-07 -4.47177e-07 -3.45222e-07 -3.12868e-07 4.53098e-05 6.29326e-05 -0.000147696 0.004 505.197 1.18174 
23 1 1 0.0153483 -0.035882 0.00391129 0 0 0 7.07826e-07 -2.57109e-07 -1.37248e-07 -5.83691e-07 -3.23056e-07 4.67339e-08 3.37654e-05 9.6618e-05 -4.86623e-05 0.004 665.61 -2.68694 
118 1 1 -0.0307533 -0.0342397 0.00392725 0 0 0 5.38798e-07 -4.36819e-07 -2.20131e-07 -3.23924e-07 4.29058e-08 4.09941e-08 8.79534e-05 0.000118461 -6.95189e-05 0.004 348.667 3.24933 
30 1 1 -0.0188787 -0.0333717 0.00395275 0 0 0 1.00131e-06 -1.09753e-06 -8.86351e-07 -5.46699e-07 -1.32258e-07 4.8068e-08 6.24351e-05 9.90749e-05 -7.3153e-05 0.004 392.026 3.22769 
215 1 1 -0.00603631 -0.0313238 0.00390661 0 0 0 1.13088e-06 -7.08364e-07 -4.58119e-07 -1.92828e-07 -4.34379e-07 -1.2425e-07 0.000170766 -4.85316e-05 0.000136074 0.004 483.486 1.65201 
74 1 1 0.00184141 -0.0338192 0.0039068 0 0 0 1.08013e-06 -7.55716e-07 -2.1347e-07 -6.16619e-07 -3.5753e-07 -1.65617e-07 0.00016939 0.000110364 1.67948e-05 0.004 557.237 -0.138139 
24 1 1 0.00917857 -0.0308342 0.00392034 0 0 0 1.23733e-06 -2.80211e-07 1.91261e-07 -8.91987e-07 -4.88987e-07 -1.489e-07 5.67607e-05 0.000170115 1.42386e-05 0.004 628.794 -1.86943 
198 1 1 0.0259423 -0.0339524 0.00395551 0 0 0 6.25404e-07 -2.68898e-07 9.29331e-08 -5.66648e-07 8.94085e-08 1.75736e-07 9.54611e-05 0.000159543 -0.000100128 0.004 728.351 -3.23283 
161 1 1 0.0335301 -0.0316074 0.00391357 0 0 0 2.18975e-07 -2.85526e-07 -3.896e-08 -3.21835e-07 2.00707e-07 2.14742e-07 4.03764e-05 3.64385e-06 3.68137e-05 0.004 753.04 -2.96985 
8 1 1 -0.0322699 -0.0264156 0.00398405 0 0 0 9.56392e-07 -4.8621e-07 -1.42324e-07 -4.54048e-07 -1.42978e-07 -1.31721e-07 -2.39236e-05 -2.18258e-05 -3.86069e-05 0.004 340.63 2.92034 
12 1 1 -0.0244143 -0.0276959 0.00386439 0 0 0 1.55894e-06 -9.04702e-07 -6.97681e-07 -8.29879e-07 -2.61441e-07 -1.60851e-07 -1.27922e-05 0.000245292 -9.6567e-05 0.004 366.208 3.19893 
188 1 1 -0.0131742 -0.0277762 0.00396588 0 0 0 1.70688e-06 -1.41523e-06 -1.28889e-06 -7.49885e-07 2.87961e-08 4.18826e-07 0.000112926 0.000133643 -8.75451e-05 0.004 412.076 3.06088 
77 1 1 -0.000100229 -0.0260809 0.00389417 0 0 0 2.15531e-06 -7.51077e-07 4.35227e-07 -1.05667e-06 -3.12241e-07 -3.91477e-07 0.000190726 0.000455888 -0.000319038 0.004 542.412 0.196289 
113 1 1 0.0165643 -0.0280203 0.00388659 0 0 0 1.12094e-06 -4.08613e-07 -2.90178e-08 -9.57161e-07 -2.1671e-07 2.28739e-07 5.77515e-05 0.000119716 -6.09609e-05 0.004 682.785 -2.7687 
183 1 1 0.0384541 -0.0253742 0.00393847 0 0 0 2.19421e-07 -2.27139e-07 -8.88289e-08 -2.7567e-07 2.36836e-07 3.14057e-07 -2.00424e-05 -2.39547e-06 -9.70607e-06 0.004 770.115 -2.48847 
162 1 1 -0.0396311 -0.023418 0.00390783 0 0 0 3.61726e-07 -5.73598e-07 -4.0056e-07 -2.3114e-07 -1.90994e-08 1.00598e-07 0.000100078 6.85164e-05 2.89508e-06 0.004 324.039 2.26468 
53 1 1 -0.027206 -0.0202486 0.00395169 0 0 0 2.10668e-06 -1.36702e-06 -4.34283e-07 -1.131e-06 -1.87149e-07 2.75793e-08 0.000233051 0.000363546 -5.95222e-05 0.004 350.349 2.99607 
148 1 1 -0.0187584 -0.0220642 0.00393817 0 0 0 2.26222e-06 -1.48238e-06 -5.87633e-07 -1.36224e-06 -2.28032e-07 1.04566e-07 0.000339493 0.000377479 -2.47758e-05 0.004 389.271 3.27331 
195 1 1 -0.00727815 -0.02155 0.00394566 0 0 0 3.00678e-06 -1.05045e-06 -6.27801e-07 -1.81535e-06 -2.16444e-07 6.11636e-08 0.000152925 0.000636935 8.47831e-05 0.004 468.776 2.09138 
179 1 1 0.0073663 -0.0231031 0.00394275 0 0 0 2.17809e-06 -3.14387e-07 9.08873e-07 -1.42419e-06 -4.01343e-07 -4.57024e-07 1.55676e-05 0.000346512 -0.000171451 0.004 627.722 -1.90606 
95 1 1 0.0148506 -0.02031 0.00393211 0 0 0 1.90096e-06 -6.17812e-07 3.29736e-07 -1.17798e-06 -2.04768e-07 2.34746e-07 9.68436e-05 0.000140222 -2.35272e-05 0.004 678.853 -2.70765 
76 1 1 0.0230028 -0.0233057 0.00397473 0 0 0 1.0641e-06 -3.64736e-07 1.09317e-07 -8.43988e-07 1.43409e-08 4.2706e-07 6.13942e-05 0.000106615 -3.2791e-05 0.004 733.9 -3.15491 
100 1 1 0.0325586 -0.0200895 0.00388595 0 0 0 7.483e-07 -5.58658e-07 -1.30717e-07 -7.61911e-07 4.99743e-07 6.83909e-07 7.43817e-05 0.000109734 4.1471e-06 0.004 762.159 -2.6772 
65 1 1 -0.0430742 -0.0162802 0.00393146 0 0 0 3.30945e-07 -6.55834e-07 -1.18266e-07 -1.83894e-07 -2.59199e-08 4.77197e-08 6.99577e-05 -4.03304e-05 -0.000107875 0.004 316.813 1.84207 
102 1 1 -0.0351583 -0.0155178 0.0039445 0 0 0 1.45613e-06 -1.71638e-06 -6.66125e-07 -8.18492e-07 -7.43166e-08 1.11415e-07 0.000457516 0.000333465 1.27287e-05 0.004 327.058 2.25834 
213 1 1 -0.0132588 -0.0162738 0.00397365 0 0 0 2.27706e-06 -1.23043e-06 -4.49377e-07 -1.33421e-06 -6.55248e-08 2.35954e-07 -3.89147e-05 0.000150618 5.90456e-05 0.004 415.67 3.05074 
10 1 1 0.00114847 -0.0182524 0.00475004 0 0 0 3.10689e-06 -8.9082e-07 1.58185e-08 -1.70434e-06 -2.58573e-07 -2.67869e-07 -0.000235171 -0.000395477 0.000227313 0.004 565.15 -0.453844 
5 1 1 0.00879792 -0.0152553 0.00390316 0 0 0 2.19238e-06 -6.91333e-07 3.20815e-07 -1.2539e-06 -1.44978e-07 3.6632e-08 -8.62364e-05 0.000253961 0.000107935 0.004 637.256 -2.05394 
96 1 1 0.0211693 -0.0155242 0.00395652 0 0 0 1.47321e-06 -6.15569e-07 4.73866e-07 -9.23297e-07 1.12973e-07 3.49757e-07 0.00018455 0.000177453 2.37842e-05 0.004 727.911 -3.00907 
167 1 1 0.0421923 -0.0183683 0.00392112 0 0 0 2.41681e-07 -2.94211e-07 -3.30402e-08 -3.48934e-07 2.36695e-07 2.06673e-07 6.38571e-05 6.13118e-05 1.25195e-05 0.004 783.014 -1.89323 
124 1 1 -0.0290109 -0.0104716 0.00394792 0 0 0 1.77091e-06 -1.82549e-06 -2.82914e-07 -1.21808e-06 1.15234e-07 1.86612e-07 0.000321502 0.000407378 -2.80946e-05 0.004 344.875 2.6787 
220 1 1 -0.0217759 -0.0144543 0.00398045 0 0 0 2.51929e-06 -1.89974e-06 -6.35333e-07 -1.44657e-06 1.92768e-07 -4.90801e-09 0.000471183 0.000513767 -3.39359e-05 0.004 370.784 3.00614 
144 1 1 -0.00535515 -0.0138038 0.00388182 0 0 0 3.12181e-06 -1.26816e-06 -6.05456e-07 -1.4337e-06 -1.20339e-07 -1.36028e-07 0.000175654 0.000585576 -0.000119748 0.004 505.597 0.927706 
26 1 1 0.00255574 -0.0104629 0.00390569 0 0 0 2.69936e-06 -8.48822e-07 -4.33694e-07 -1.23707e-06 -8.35774e-08 1.082e-07 -3.67228e-05 0.000166342 -0.000121247 0.004 569.724 -0.597121 
194 1 1 0.0287353 -0.013103 0.00393081 0 0 0 1.25928e-06 -7.30047e-07 1.26282e-07 -1.03134e-06 4.74878e-07 7.32701e-07 0.000106807 0.00020149 -0.000106012 0.004 756.172 -2.76504 
37 1 1 0.0366701 -0.0122308 0.00393305 0 0 0 5.98527e-07 -6.92444e-07 -1.31735e-07 -7.99802e-07 8.49729e-07 1.0054e-06 0.000185455 8.44393e-05 0.00022857 0.004 777.74 -2.1209 
219 1 1 0.0447285 -0.0108715 0.00390888 0 0 0 2.01457e-07 -2.66855e-07 2.13749e-08 -2.73111e-07 2.19787e-07 1.09088e-07 5.46589e-05 5.8732e-05 2.44076e-05 0.004 788.557 -1.54225 
636 1 1 -0.0451997 -0.00864275 0.00391771 0 0 0 1.61804e-07 -5.03329e-07 -2.30811e-07 4.91418e-08 -3.95267e-08 9.62006e-08 3.0249e-05 3.36249e-05 8.21301e-05 0.004 311.137 1.46374 
39 1 1 -0.0161466 -0.00885108 0.00388992 0 0 0 2.61104e-06 -1.67756e-06 -8.11447e-07 -1.27573e-06 -5.21752e-08 -1.538e-07 0.000198852 0.000336687 2.8063e-05 0.004 409.444 2.57408 
171 1 1 -0.00395983 -0.00597828 0.00392048 0 0 0 3.01609e-06 -1.11273e-06 -5.3784e-07 -1.18351e-06 -9.60376e-08 -1.09448e-07 0.000135229 0.000297653 0.000138387 0.004 510.5 0.752626 
200 1 1 0.0146298 -0.0098652 0.00396379 0 0 0 2.15591e-06 -8.65497e-07 8.61249e-08 -1.21234e-06 1.19718e-07 3.64144e-07 0.000119289 0.000136171 -6.7147e-05 0.004 684.964 -2.8394 
21 1 1 0.022252 -0.00762162 0.00394337 0 0 0 1.68956e-06 -7.87968e-07 6.32809e-07 -1.0838e-06 2.52816e-07 5.08151e-07 0.000165814 0.000172673 1.82107e-05 0.004 730.622 -3.03049 
17 1 1 0.0298456 -0.00520717 0.00394875 0 0 0 1.69602e-06 -7.00939e-07 -2.03377e-07 -1.09872e-06 5.46154e-07 1.12421e-06 8.66679e-05 0.000353281 -5.82122e-06 0.004 755.969 -2.80741 
477 1 1 -0.0445832 -0.000710815 0.00396286 0 0 0 -2.04542e-08 -5.66148e-07 -3.12575e-07 1.71298e-07 -1.51348e-08 -1.87992e-09 5.87197e-05 -4.98419e-06 -8.81726e-05 0.004 310.55 1.38109 
140 1 1 -0.0352672 -0.00371827 0.0038725 0 0 0 7.11529e-07 -1.55446e-06 -5.32789e-07 -1.91098e-07 -1.82474e-07 -4.13356e-08 0.000214028 9.83654e-05 5.77385e-05 0.004 328.249 2.09882 
119 1 1 -0.0273891 -0.00269834 0.00396393 0 0 0 1.47158e-06 -1.75128e-06 -1.24631e-07 -5.02958e-07 -6.98029e-08 -1.30532e-07 0.000178499 5.39007e-05 -2.02412e-05 0.004 352.154 2.5746 
207 1 1 -0.0194911 -0.00168729 0.00389515 0 0 0 2.2077e-06 -2.0436e-06 -8.42237e-07 -6.22791e-07 6.02393e-08 -1.29319e-07 0.000176095 0.000360537 3.79399e-05 0.004 389.282 2.62166 
69 1 1 -0.0111572 -0.00264551 0.0039301 0 0 0 2.60149e-06 -1.26243e-06 -8.01566e-07 -8.79418e-07 4.78443e-08 -7.06371e-08 6.89145e-05 0.000269704 2.1106e-05 0.004 447.032 1.99781 
221 1 1 0.00874805 -0.00448988 0.00393203 0 0 0 2.71323e-06 -1.05002e-06 4.0446e-08 -1.15819e-06 3.81877e-07 1.37972e-07 0.0003066 0.000209174 -5.93013e-06 0.004 646.869 -2.28421 
457 1 1 0.0163505 -0.0020806 0.0039593 0 0 0 2.20411e-06 -9.61468e-07 3.47524e-07 -1.17551e-06 4.50733e-07 3.02809e-07 0.000183483 0.000345064 0.000118527 0.004 696.671 -2.97641 
155 1 1 0.0378912 -0.00224685 0.00393693 0 0 0 7.29541e-07 -5.51245e-07 -1.12089e-07 -1.02679e-06 8.79289e-07 1.24275e-06 1.96506e-05 0.000114085 -0.000272397 0.004 779.634 -1.92388 
665 1 1 0.0459183 -0.00307627 0.0039426 0 0 0 4.77366e-07 -2.33295e-07 -2.59656e-09 -6.06435e-07 4.54052e-08 3.07919e-07 1.10042e-05 0.000127895 -6.7938e-05 0.004 788.571 -1.50426 
120 1 1 0.00918487 -0.0371091 0.00876937 0 0 0 1.38548e-06 -3.82806e-07 -1.19919e-07 -1.30388e-06 -7.73876e-07 -2.37668e-07 0.000166355 8.72087e-05 -0.000196655 0.004 630.559 -1.98934 
9 1 1 -0.0247147 -0.033359 0.00937625 0 0 0 1.62259e-06 -1.22935e-06 -6.50882e-07 -9.56268e-07 -1.19254e-07 -1.80452e-07 0.000153788 0.000153315 -0.000268557 0.004 369.055 3.32844 
101 1 1 -0.0188614 -0.0277191 0.0095515 0 0 0 3.25572e-06 -2.25502e-06 -1.60718e-06 -1.77441e-06 -3.73918e-07 9.21135e-08 8.92591e-05 0.000230952 -0.000240659 0.004 387.329 3.20289 
48 1 1 0.0221998 -0.0293138 0.00920033 0 0 0 1.20662e-06 -4.5237e-07 3.42105e-07 -1.3906e-06 -2.6342e-07 2.90042e-07 4.74994e-06 -0.000157377 0.000112539 0.004 717.626 -3.02095 
75 1 1 0.02936 -0.0261745 0.00787423 0 0 0 1.05872e-06 -5.49696e-07 2.29058e-07 -1.04226e-06 1.87151e-07 5.0547e-07 -3.0785e-05 0.000127684 -0.000124589 0.004 749.732 -2.92349 
46 1 1 -0.0327912 -0.0205809 0.00958353 0 0 0 2.49861e-06 -2.73896e-06 -1.90036e-06 -1.60452e-06 -2.72167e-07 2.69312e-07 -5.89526e-05 -0.000507666 0.000177107 0.004 338.012 2.62438 
33 1 1 -0.013034 -0.0220249 0.00949571 0 0 0 4.23987e-06 -2.47726e-06 -1.61801e-06 -2.63943e-06 -4.4025e-07 7.1586e-07 0.000180349 0.000176805 8.90626e-05 0.004 417.431 2.89664 
11 1 1 0.02689 -0.0187448 0.00924463 0 0 0 2.33732e-06 -7.62967e-07 2.67219e-07 -1.86275e-06 2.05741e-07 9.42552e-07 2.13665e-05 0.000120395 -3.17902e-05 0.004 745.263 -2.9065 
71 1 1 -0.0372751 -0.00954696 0.00876625 0 0 0 1.33983e-06 -2.47422e-06 -6.69963e-07 -4.46468e-07 -1.5441e-08 4.29083e-07 -0.000171471 -0.000111866 0.000179641 0.004 321.347 1.95113 
62 1 1 -0.0228082 -0.00771373 0.00814042 0 0 0 3.24714e-06 -3.03227e-06 -3.85824e-07 -1.58747e-06 1.02887e-07 -1.71559e-07 -4.12256e-05 3.91608e-05 7.60977e-05 0.004 370.717 2.81298 
19 1 1 -0.00970671 -0.00905634 0.00849074 0 0 0 5.38239e-06 -2.27616e-06 -8.93552e-07 -2.32696e-06 -1.12075e-07 -4.22589e-07 -9.52368e-05 -7.18135e-05 2.7548e-05 0.004 472.368 1.48635 
187 1 1 0.0079671 -0.00988205 0.00975754 0 0 0 7.24304e-06 -1.00343e-06 -6.21309e-07 -3.46843e-06 -3.60915e-07 6.66744e-07 -0.000278225 0.00134201 -0.000518663 0.004 632.364 -2.29449 
157 1 1 0.0395817 -0.00751949 0.00963112 0 0 0 1.05356e-06 -1.07064e-06 -1.36435e-07 -1.74044e-06 1.03636e-06 1.90217e-06 3.07766e-05 0.000289769 -4.0035e-05 0.004 784.208 -1.76321 
18 1 1 0.00229113 -0.00404902 0.00852647 0 0 0 4.9442e-06 -1.79151e-06 -3.79143e-07 -1.92627e-06 3.8967e-07 1.10716e-07 0.000153481 0.000310159 -5.83781e-05 0.004 567.973 -0.511484 
185 1 1 -0.00531148 -0.045735 0.0104438 0 0 0 3.35981e-07 -4.55057e-07 -4.41589e-07 -6.58167e-07 -2.98278e-07 -4.38635e-08 -3.43815e-05 5.38661e-05 9.03658e-07 0.004 498.652 1.48249 
83 1 1 0.00256736 -0.0459473 0.0112661 0 0 0 5.71003e-07 -3.99453e-07 -5.30699e-07 -7.78456e-07 -4.60871e-07 -1.3425e-07 -0.000114132 -2.98354e-05 -5.94815e-05 0.004 564.045 -0.310578 
58 1 1 -0.0218568 -0.0405821 0.0112769 0 0 0 9.3649e-07 -1.03853e-06 -5.23736e-07 -4.34523e-07 -2.06557e-07 4.83023e-08 3.80807e-05 0.000135928 -0.000272403 0.004 383.468 3.41136 
105 1 1 -0.013586 -0.043966 0.0108788 0 0 0 3.54765e-07 -1.3912e-07 -2.81929e-07 -1.37529e-07 -3.16418e-07 -1.82429e-07 -8.56053e-05 2.26118e-05 -0.000120294 0.004 431.357 3.57427 
223 1 1 0.0103957 -0.0448674 0.0106706 0 0 0 6.26299e-07 -3.49684e-07 -3.77716e-07 -7.41941e-07 -3.45018e-07 -4.975e-07 -1.31168e-05 5.56278e-06 -2.85189e-05 0.004 623.619 -1.83819 
217 1 1 0.0179432 -0.0424253 0.0108281 0 0 0 5.38298e-07 -4.5953e-07 -1.93916e-07 -7.62246e-07 -2.73893e-07 5.1177e-07 4.71135e-05 -1.14197e-05 -4.1434e-05 0.004 671.837 -2.81703 
6 1 1 -0.0162615 -0.0350311 0.0113114 0 0 0 2.12313e-06 -1.7649e-06 -6.65278e-07 -6.09123e-07 -5.26781e-07 -6.07746e-07 -9.95268e-05 -0.000205598 8.86311e-07 0.004 409.698 3.07054 
151 1 1 -0.00801307 -0.0382603 0.0108115 0 0 0 1.33776e-06 -9.58134e-07 -6.59821e-07 -5.72079e-07 -7.80864e-07 -5.50256e-07 4.88247e-05 9.45482e-05 -0.000129719 0.004 468.89 2.145 
2 1 1 0.000443932 -0.038308 0.010271 0 0 0 1.4585e-06 -1.30105e-06 -6.71043e-07 -1.3846e-06 -6.31576e-07 -3.18896e-07 6.24967e-05 5.4531e-05 1.27707e-05 0.004 549.207 0.0577857 
117 1 1 0.0249196 -0.0387267 0.0109176 0 0 0 2.95538e-07 -3.0782e-07 3.38921e-08 -4.63911e-07 -1.5958e-07 4.61581e-07 1.6734e-05 -3.69326e-05 3.62299e-05 0.004 715.109 -3.20951 
13 1 1 -0.0323455 -0.0327547 0.011537 0 0 0 8.44672e-07 -1.15793e-06 -5.87916e-07 -6.322e-07 4.73903e-08 1.72124e-07 -1.57301e-05 -8.20249e-05 0.000112821 0.004 347.074 3.0761 
193 1 1 -0.00982578 -0.0305006 0.0107685 0 0 0 3.11166e-06 -2.02181e-06 -7.25902e-07 -1.15186e-06 -6.74064e-07 -6.62256e-07 0.000160644 0.000430801 -0.000311826 0.004 459.072 2.16674 
47 1 1 -0.00133756 -0.0305434 0.0103848 0 0 0 3.10416e-06 -1.5181e-06 1.74362e-07 -1.80993e-06 -5.52582e-07 -5.97748e-07 0.000112998 8.71675e-05 -0.000347469 0.004 537.669 0.322588 
153 1 1 0.00656465 -0.0300231 0.0113662 0 0 0 3.39356e-06 -1.2398e-06 5.97396e-07 -2.64093e-06 -9.69851e-07 -4.00363e-07 0.000118021 6.58895e-05 0.000136029 0.004 606.737 -1.40876 
41 1 1 0.0148076 -0.0317915 0.010654 0 0 0 2.18388e-06 -7.75629e-07 2.81285e-07 -2.16882e-06 -7.48469e-07 -9.25542e-08 6.74262e-05 0.000221794 -4.43127e-05 0.004 671.116 -2.70969 
163 1 1 0.0311565 -0.0339183 0.0111114 0 0 0 2.27762e-07 -2.877e-07 1.18857e-07 -5.03703e-07 1.10095e-08 1.48152e-07 1.52703e-05 3.45396e-05 -1.06192e-05 0.004 748.239 -2.99827 
214 1 1 -0.0375015 -0.0268265 0.010714 0 0 0 1.1744e-06 -1.34922e-06 -1.17532e-06 -8.89009e-07 -5.35194e-08 3.68749e-07 -0.000151387 0.000359378 -0.000401188 0.004 332.172 2.5445 
210 1 1 0.0364694 -0.0280971 0.0111135 0 0 0 3.89403e-07 -4.07812e-07 8.91767e-08 -6.1758e-07 2.37836e-07 3.86258e-07 4.78595e-05 5.48529e-05 -4.63634e-05 0.004 768.971 -2.48966 
108 1 1 -0.0260915 -0.0246404 0.0109305 0 0 0 3.48302e-06 -2.58253e-06 -1.43127e-06 -2.13276e-06 -1.05088e-06 2.36775e-07 0.00039148 4.94196e-05 -5.44919e-05 0.004 358.671 2.96862 
40 1 1 -0.0055111 -0.0238697 0.0113285 0 0 0 4.88795e-06 -2.06527e-06 -8.10594e-07 -2.68922e-06 -4.78433e-07 -2.13456e-07 -1.1846e-06 -0.000324861 0.000103385 0.004 493.998 1.3063 
55 1 1 0.00236211 -0.0232851 0.0108249 0 0 0 4.87111e-06 -1.70238e-06 8.72708e-07 -3.11856e-06 -4.2001e-07 -7.34249e-07 2.66894e-05 4.93617e-05 -0.000145694 0.004 575.099 -0.621708 
91 1 1 0.0120918 -0.0243837 0.0101856 0 0 0 3.85655e-06 -8.41491e-07 5.07871e-07 -2.88797e-06 -8.22457e-07 -6.24645e-08 -9.58693e-05 0.000274221 -0.000299097 0.004 654.825 -2.42421 
112 1 1 0.0192794 -0.0205361 0.0105073 0 0 0 3.67452e-06 -9.23183e-07 8.70261e-07 -2.69439e-06 -5.18877e-07 6.92413e-07 -9.75454e-05 0.000274559 2.08859e-05 0.004 702.262 -3.01489 
178 1 1 0.0318658 -0.0225254 0.0144788 0 0 0 1.43842e-06 -1.00739e-06 5.26514e-07 -1.99981e-06 3.06877e-07 7.93017e-07 6.03117e-05 -4.00265e-05 -5.89515e-05 0.004 763.668 -2.62888 
131 1 1 0.0407765 -0.0214683 0.0110513 0 0 0 5.71737e-07 -6.53198e-07 -6.51619e-08 -7.09222e-07 4.25671e-07 4.96417e-07 -3.89362e-05 -2.56094e-05 4.66376e-05 0.004 779.279 -2.06204 
160 1 1 -0.0414721 -0.0199398 0.0108131 0 0 0 5.8927e-07 -1.14549e-06 -6.68754e-07 -5.9344e-07 -1.8142e-07 1.20705e-07 6.091e-05 5.2064e-05 0.000180406 0.004 319.229 1.97777 
43 1 1 -0.0361086 -0.0151005 0.0142598 0 0 0 2.20345e-06 -4.18942e-06 -2.17275e-06 -1.37027e-06 -3.99206e-07 4.99664e-07 0.000628814 0.000382076 -0.00037755 0.004 326.907 2.14661 
4 1 1 -0.0270342 -0.0151184 0.010074 0 0 0 3.92969e-06 -3.106e-06 -1.15193e-06 -2.78879e-06 -3.90561e-07 3.63575e-07 -2.01533e-05 0.000306837 -0.000221362 0.004 353.295 2.85468 
104 1 1 -0.0203009 -0.0192302 0.0111977 0 0 0 4.64374e-06 -3.4479e-06 -1.39527e-06 -2.99062e-06 -3.11277e-07 1.76444e-07 -3.47818e-05 0.000156108 -1.27938e-05 0.004 382.233 2.98947 
20 1 1 -0.00745477 -0.0162218 0.0110955 0 0 0 6.16222e-06 -2.38652e-06 -6.13191e-07 -3.3952e-06 -2.2315e-07 -5.49624e-07 0.00020053 0.000337155 -0.000219186 0.004 486.875 1.31029 
45 1 1 0.0008251 -0.0164513 0.0146047 0 0 0 7.22762e-06 -2.64087e-06 4.48909e-07 -4.18371e-06 -3.23645e-07 -4.52439e-07 -0.000106398 7.30386e-05 -5.84622e-05 0.004 557.546 -0.248069 
159 1 1 0.00795162 -0.0177076 0.011347 0 0 0 5.42728e-06 -1.46985e-06 1.06922e-06 -3.47507e-06 -5.42846e-07 -2.17445e-07 0.00020959 0.000133042 0.000152534 0.004 630.783 -1.90382 
136 1 1 0.0347931 -0.0163371 0.0104655 0 0 0 1.76287e-06 -1.22215e-06 -5.96525e-08 -1.68381e-06 7.81726e-07 1.46017e-06 -3.16789e-05 0.000189337 -0.000160527 0.004 770.949 -2.35847 
177 1 1 -0.0443274 -0.0125289 0.0108104 0 0 0 7.28514e-07 -1.16772e-06 -3.59256e-07 -2.44886e-07 -4.96743e-08 2.93545e-07 4.80677e-06 0.000123491 -0.000244156 0.004 314.524 1.66203 
139 1 1 -0.0168209 -0.0121092 0.0110439 0 0 0 5.30846e-06 -3.66281e-06 -2.04939e-06 -3.18074e-06 2.09439e-08 -1.22125e-07 0.00019608 0.000507559 -9.37256e-05 0.004 401.864 2.65863 
211 1 1 -0.00209536 -0.0104148 0.0103075 0 0 0 6.08011e-06 -2.32333e-06 -4.06602e-07 -3.05002e-06 1.58848e-09 -8.57196e-08 0.000239802 0.000303107 0.000150718 0.004 529.843 0.341455 
54 1 1 0.0149155 -0.0138957 0.0108309 0 0 0 4.45897e-06 -1.03539e-06 1.03984e-06 -3.1242e-06 -3.82945e-07 2.37316e-07 -0.000112431 0.000231466 -1.63586e-05 0.004 684.226 -2.88839 
84 1 1 0.023272 -0.0118009 0.0106602 0 0 0 3.66633e-06 -1.29501e-06 1.01808e-06 -2.80119e-06 3.79049e-07 9.7078e-07 -2.95574e-05 0.00034658 -3.58133e-05 0.004 734.643 -2.9834 
180 1 1 0.0438204 -0.0140997 0.0110465 0 0 0 5.19077e-07 -5.86525e-07 -1.21752e-07 -8.05948e-07 5.72731e-07 6.56927e-07 -4.56924e-05 -8.99555e-06 -1.63e-05 0.004 786.891 -1.63892 
103 1 1 0.0174441 -0.0063656 0.0105707 0 0 0 4.7205e-06 -1.58057e-06 7.58294e-07 -3.03785e-06 3.86478e-07 6.85273e-07 -6.62088e-05 9.09133e-05 7.04557e-06 0.004 702.435 -2.93804 
156 1 1 0.0308891 -0.00946111 0.0106299 0 0 0 3.19476e-06 -1.29832e-06 -1.13417e-07 -2.39386e-06 8.31831e-07 1.97179e-06 -0.000156956 0.000145526 -0.00010497 0.004 759.162 -2.63966 
197 1 1 -0.045783 -0.0047112 0.0107571 0 0 0 1.90704e-07 -8.8059e-07 -6.7326e-07 9.23017e-08 -1.01856e-07 4.71971e-08 -2.59235e-06 0.000143851 0.0001053 0.004 311.119 1.42723 
87 1 1 -0.0386059 -0.00381154 0.0141381 0 0 0 -1.88489e-07 -2.96475e-06 -2.10744e-06 -1.63385e-07 4.39607e-07 -2.75122e-08 8.31975e-05 -0.000402603 -0.000277116 0.004 317.048 1.70952 
130 1 1 -0.0313597 -0.00387382 0.0107775 0 0 0 2.24222e-06 -4.44568e-06 -1.81449e-06 -3.37714e-07 -1.62355e-07 -8.07496e-08 0.000737823 0.000321427 -0.00020901 0.004 333.381 2.25155 
604 1 1 -0.0224595 -0.000300851 0.0110796 0 0 0 4.61639e-06 -4.20628e-06 -1.59831e-06 -6.5181e-07 6.03984e-07 -5.1729e-07 7.47456e-05 0.000202837 -0.000123288 0.004 376.92 2.57222 
146 1 1 -0.0155078 -0.00400725 0.0103913 0 0 0 4.86774e-06 -3.59201e-06 -1.96886e-06 -1.61755e-06 4.8147e-08 -1.98357e-07 0.000314812 -3.46032e-05 0.000332933 0.004 420.87 2.24792 
57 1 1 -0.0051752 -0.00310605 0.0111955 0 0 0 6.27162e-06 -2.79564e-06 -6.5221e-07 -2.30474e-06 5.08389e-07 -1.03626e-06 6.82606e-05 0.000246933 -5.09818e-06 0.004 510.026 0.778715 
493 1 1 0.0116957 -0.000875024 0.0103666 0 0 0 5.26941e-06 -2.05465e-06 4.80569e-07 -2.81267e-06 1.33177e-06 4.44618e-07 -6.03814e-05 0.000429021 4.53098e-05 0.004 664.936 -2.45572 
31 1 1 0.0250484 -0.00405415 0.0104601 0 0 0 3.88784e-06 -1.47621e-06 5.67239e-07 -2.75148e-06 7.16035e-07 1.49281e-06 5.1754e-05 0.000361387 2.02382e-05 0.004 737.265 -2.85757 
588 1 1 0.0325999 -0.00174523 0.010543 0 0 0 3.07745e-06 -1.54491e-06 -2.65241e-07 -2.33875e-06 1.20677e-06 2.21574e-06 0.000232876 7.56032e-06 4.19635e-05 0.004 760.58 -2.49716 
63 1 1 0.045924 -0.00327879 0.0119253 0 0 0 9.81945e-07 -6.95184e-07 -4.92866e-07 -1.0515e-06 5.61162e-07 1.13646e-06 1.98939e-05 -0.000147681 7.3494e-05 0.004 787.373 -1.55076 
107 1 1 -0.00850633 -0.045273 0.017677 0 0 0 1.11404e-06 -7.12254e-07 -2.49178e-07 -1.23723e-06 -3.57415e-07 1.10725e-07 9.35477e-05 0.000188357 -0.00022284 0.004 482.853 1.72249 
222 1 1 -0.00141959 -0.0418101 0.0171129 0 0 0 1.90372e-06 -1.68958e-06 -8.91603e-07 -2.10183e-06 -7.63363e-07 -6.34207e-07 -2.7166e-05 8.95694e-06 -5.9815e-05 0.004 541.405 0.269948 
142 1 1 0.00615865 -0.0401388 0.0154212 0 0 0 1.65451e-06 -1.07168e-06 -6.9558e-07 -2.0054e-06 -1.29088e-06 -4.97214e-07 8.67024e-05 1.8715e-05 5.15898e-05 0.004 597.014 -1.17063 
172 1 1 0.0116014 -0.0446446 0.0189547 0 0 0 9.3449e-07 -7.87371e-07 -6.02076e-07 -1.69829e-06 -8.85258e-07 -2.23562e-07 -3.6613e-05 -0.000107762 -0.000137082 0.004 633.219 -2.08501 
109 1 1 0.0204197 -0.0412797 0.0183142 0 0 0 9.37642e-07 -4.54761e-07 -1.10083e-07 -8.49971e-07 -3.70618e-07 1.01947e-07 -0.000190146 0.000155524 -6.88898e-05 0.004 697.246 -3.37125 
150 1 1 -0.0273271 -0.0370832 0.0158763 0 0 0 1.15233e-06 -1.00764e-06 -4.31587e-07 -5.651e-07 1.10596e-07 6.21499e-08 1.02064e-05 -1.63378e-05 -7.52425e-05 0.004 364.163 3.26808 
38 1 1 -0.0197787 -0.0373719 0.0182824 0 0 0 1.94636e-06 -1.88849e-06 -3.0299e-07 -4.88826e-07 -2.43447e-07 -1.0635e-06 -0.000250322 -5.76405e-05 -0.000226175 0.004 396.014 3.17622 
199 1 1 -0.0118545 -0.0370266 0.01765 0 0 0 2.31185e-06 -2.28235e-06 -5.34207e-07 -9.27299e-07 -9.1555e-07 -8.85377e-07 0.000176709 0.0001095 0.000121356 0.004 432.739 2.74658 
93 1 1 0.0137643 -0.0377759 0.0156807 0 0 0 1.95342e-06 -8.99335e-07 -1.10565e-07 -2.52958e-06 -1.00534e-06 1.17835e-07 0.00012256 4.03739e-05 -0.000192805 0.004 655.045 -2.50715 
64 1 1 0.0280177 -0.0365092 0.0179286 0 0 0 1.03358e-06 -1.82369e-07 6.12577e-07 -3.29932e-07 -5.45435e-08 1.91082e-07 3.34566e-05 0.000281564 -0.000165319 0.004 740.384 -3.36724 
22 1 1 -0.0327402 -0.032422 0.0194567 0 0 0 1.77411e-06 -1.83178e-06 -8.91283e-07 -1.08083e-06 -4.15088e-07 3.3312e-07 -5.04494e-05 0.00027991 -0.000532866 0.004 343.44 2.89263 
174 1 1 -0.0224319 -0.0302105 0.0162617 0 0 0 4.00036e-06 -2.89326e-06 -1.75488e-06 -1.54731e-06 -6.19591e-07 -1.80261e-07 -0.000167829 0.000115332 -0.000225224 0.004 381.147 3.15701 
32 1 1 -0.00428307 -0.0343967 0.0166775 0 0 0 3.44371e-06 -2.0571e-06 -3.26898e-07 -2.69727e-06 -1.03744e-06 -8.37881e-07 0.000277496 0.000255669 -3.91771e-05 0.004 512.804 0.968817 
128 1 1 0.00347463 -0.033132 0.0179959 0 0 0 3.99898e-06 -1.95524e-06 -2.87676e-07 -3.65485e-06 -1.78047e-06 -2.77831e-07 8.50569e-05 7.59849e-05 -0.000228639 0.004 572.5 -0.590548 
88 1 1 0.0113687 -0.0304834 0.0177099 0 0 0 4.14124e-06 -1.31848e-06 1.01167e-06 -4.44896e-06 -1.80513e-06 -6.49476e-07 0.000131034 0.000114539 -9.07994e-05 0.004 651.863 -2.36551 
137 1 1 0.0208047 -0.0338186 0.0156334 0 0 0 1.38352e-06 -9.86048e-07 1.43691e-07 -2.50094e-06 -8.0451e-07 -3.76778e-07 0.000178877 0.000130434 -0.000177155 0.004 712.048 -3.37286 
154 1 1 0.0339821 -0.0311387 0.0180551 0 0 0 5.63096e-07 -4.43411e-07 2.54389e-07 -9.40889e-07 -1.29258e-08 1.21395e-07 -4.10005e-08 2.81927e-05 2.29233e-05 0.004 765.195 -2.58873 
52 1 1 -0.031991 -0.0252343 0.0161626 0 0 0 3.24319e-06 -3.45443e-06 -2.40715e-06 -1.89415e-06 -6.47607e-07 7.50242e-07 0.000106285 2.05491e-05 -0.000230461 0.004 340.514 2.65085 
80 1 1 -0.00960094 -0.0265066 0.0175805 0 0 0 6.46062e-06 -3.58439e-06 -1.66852e-06 -3.56742e-06 -8.62382e-07 -5.99223e-07 -1.32347e-05 0.000307909 0.000106866 0.004 459.64 1.97643 
125 1 1 -0.00117358 -0.0267001 0.0173742 0 0 0 6.0089e-06 -1.60456e-06 4.91576e-08 -3.84255e-06 -1.54117e-06 -3.553e-07 -0.000260174 0.000437939 -0.000180147 0.004 537.64 0.286216 
72 1 1 0.0179273 -0.0264316 0.015637 0 0 0 4.01128e-06 -1.18045e-06 1.34381e-06 -3.87933e-06 -1.15598e-06 -2.72548e-07 0.000141162 1.83748e-05 -0.000304352 0.004 694.313 -3.07438 
34 1 1 0.0269648 -0.0287251 0.0154182 0 0 0 9.25704e-07 -7.35016e-07 8.5588e-07 -1.6493e-06 -2.06319e-07 1.23519e-07 9.51662e-05 0.000128727 -5.82061e-05 0.004 746.673 -2.90428 
218 1 1 -0.0395968 -0.0234663 0.0176916 0 0 0 1.62803e-06 -2.15564e-06 -1.55084e-06 -1.11931e-06 -5.32356e-08 3.90879e-07 9.27752e-05 0.00025247 -0.000176091 0.004 322.422 2.08772 
70 1 1 -0.0247175 -0.0230258 0.0185786 0 0 0 5.03085e-06 -4.60384e-06 -2.88053e-06 -2.66994e-06 -9.04236e-07 4.3008e-07 1.98963e-05 0.000156803 2.64287e-05 0.004 363.794 2.8117 
132 1 1 -0.0171323 -0.0242634 0.0164744 0 0 0 5.76292e-06 -4.09344e-06 -2.43252e-06 -2.97332e-06 -1.22214e-07 -3.28547e-07 -5.68188e-06 -6.97291e-05 -0.00017154 0.004 400.929 2.82428 
196 1 1 0.00716656 -0.023789 0.0170602 0 0 0 6.08993e-06 -1.42343e-06 1.49264e-06 -5.04334e-06 -1.53528e-06 -6.77765e-07 -0.000215965 0.000250051 -0.000156866 0.004 626.804 -1.77269 
362 1 1 0.0243874 -0.0214292 0.0170617 0 0 0 3.4466e-06 -1.02358e-06 2.40114e-06 -3.88013e-06 -2.69122e-07 -2.96455e-07 -9.15736e-05 0.000827602 -0.000257696 0.004 745.646 -2.88806 
49 1 1 0.0387628 -0.0248027 0.0179815 0 0 0 6.93263e-07 -5.74542e-07 1.70947e-07 -1.04625e-06 2.42574e-07 4.0394e-07 -1.08107e-05 6.14439e-05 -5.55926e-05 0.004 776.513 -2.20333 
173 1 1 -0.0431191 -0.0163148 0.0177078 0 0 0 1.53678e-06 -2.16029e-06 -8.61426e-07 -9.07168e-07 -7.09328e-07 1.63793e-07 0.000147543 0.000236565 -0.000431488 0.004 317.961 1.78941 
50 1 1 -0.0295064 -0.0167659 0.0182812 0 0 0 4.04028e-06 -6.25458e-06 -3.96264e-06 -2.44387e-06 -9.69998e-07 5.03003e-07 -0.000130996 -0.000225054 0.000269151 0.004 342.397 2.43105 
202 1 1 -0.0134618 -0.0172167 0.0161107 0 0 0 6.64576e-06 -3.80618e-06 -1.64164e-06 -3.94517e-06 -2.61609e-07 -6.55955e-07 5.54056e-05 -0.00039855 0.000382291 0.004 430.668 2.28065 
86 1 1 -0.00524861 -0.0199157 0.0183758 0 0 0 7.21382e-06 -3.55341e-06 -1.3718e-06 -4.0858e-06 -1.13251e-06 -2.54702e-07 0.00011752 -0.000590241 5.05233e-05 0.004 506.704 0.955843 
129 1 1 0.0138597 -0.0196295 0.016286 0 0 0 5.49799e-06 -1.33083e-06 1.90862e-06 -4.51454e-06 -1.01466e-06 -1.20135e-07 0.000298436 -0.000158199 0.000112316 0.004 675.822 -2.62319 
82 1 1 0.0291401 -0.0151359 0.0159324 0 0 0 3.27634e-06 -1.63412e-06 1.10406e-06 -3.33032e-06 5.59474e-07 1.15768e-06 0.000325051 0.000133002 -5.75736e-05 0.004 759.753 -2.63156 
1 1 1 0.0424683 -0.0178049 0.0178803 0 0 0 7.83321e-07 -7.34706e-07 8.30155e-08 -1.21804e-06 3.63446e-07 6.37009e-07 0.000104563 0.00010518 4.592e-05 0.004 783.201 -1.83033 
168 1 1 -0.0224798 -0.0136303 0.016417 0 0 0 5.45726e-06 -5.01609e-06 -2.14472e-06 -3.44989e-06 -9.48144e-08 8.95785e-08 0.000217861 -5.11921e-05 -6.93354e-05 0.004 374.13 2.74483 
121 1 1 -0.00514892 -0.0120184 0.0174569 0 0 0 8.03252e-06 -3.73772e-06 -6.1317e-07 -4.78573e-06 -6.74395e-07 -3.72701e-07 -3.07611e-05 -0.000160165 0.000117368 0.004 513.884 0.708957 
28 1 1 0.00814316 -0.0139813 0.0183177 0 0 0 8.81524e-06 -3.33517e-06 2.04007e-06 -5.81133e-06 2.7293e-07 -1.26491e-07 6.07918e-05 0.000519134 -0.000359096 0.004 635.338 -1.98969 
42 1 1 0.0200409 -0.0148104 0.017266 0 0 0 5.81079e-06 -1.00301e-06 3.17798e-06 -5.32082e-06 -2.35324e-07 1.01552e-07 -9.10088e-05 0.000175154 -0.000152938 0.004 720.079 -2.89517 