ITEM: TIMESTEP
10400
ITEM: NUMBER OF ATOMS
890
ITEM: BOX BOUNDS mm mm mm
-0.05 0.05
-0.05 0.05
0 0.15
ITEM: ATOMS id type type x y z ix iy iz vx vy vz fx fy fz omegax omegay omegaz radius f_Temp[0] f_heatFlux[0] 
59 1 1 -0.000711404 -0.0460988 0.0039552 0 0 0 0.000229324 -9.32928e-05 -0.000191454 -0.000192456 -0.000406003 -9.12417e-05 0.0245286 0.0482379 -0.0508884 0.004 300 0 
170 1 1 -0.0173486 -0.0426429 0.00397311 0 0 0 0.000107182 -3.19676e-05 -0.000255973 -0.00054321 0.000168906 -0.000132924 -0.0534931 -0.0463489 0.030135 0.004 300 0 
15 1 1 -0.00974801 -0.0449646 0.00393323 0 0 0 0.000405436 -0.000286922 -0.000462999 -0.00064788 -0.000842804 0.000130806 0.0907342 0.142305 -0.0687528 0.004 300 0 
116 1 1 0.00648953 -0.0428217 0.00395205 0 0 0 0.00016779 -0.000563706 5.81626e-06 0.000279292 0.000355628 0.000940632 -0.322461 -0.214352 -0.0427707 0.004 300 0 
158 1 1 0.0143665 -0.043761 0.00389603 0 0 0 4.28641e-05 -0.00020131 -0.000170694 -5.31039e-05 5.05089e-05 -0.000299858 0.00151639 0.0960806 0.0278273 0.004 300 0 
98 1 1 0.0216828 -0.0406518 0.00393774 0 0 0 -8.9884e-05 -0.000407648 2.43095e-05 0.000204467 0.000281741 -0.000270126 0.0958946 -0.069785 -0.0350975 0.004 300 0 
169 1 1 -0.0244298 -0.0390672 0.00391485 0 0 0 -0.000626585 -0.000638187 -0.00135433 -0.00136263 0.00104237 3.57241e-05 -0.115332 -0.106673 0.158353 0.004 300 0 
89 1 1 -0.0118075 -0.036929 0.00395497 0 0 0 -0.00013694 0.000317724 -0.000775863 -0.00146099 0.000519949 -0.000166892 0.0607749 0.222648 0.00695516 0.004 300 0 
152 1 1 -0.00417756 -0.039021 0.00390865 0 0 0 0.000104874 0.000430283 -0.00140244 -1.60843e-06 -6.32607e-06 -0.00032842 -0.300034 -0.0125978 0.118377 0.004 300 0 
23 1 1 0.0153572 -0.0358844 0.00390413 0 0 0 3.21602e-05 -0.000504511 -0.000193406 -7.82591e-05 0.000589798 0.00099522 0.199328 -0.0421855 -0.0050015 0.004 300 0 
118 1 1 -0.030753 -0.0342419 0.00392938 0 0 0 -0.000865786 -0.000287191 -0.000794551 -0.00079736 -0.00138991 -0.000920835 -4.40629e-05 -0.331444 0.231586 0.004 300 0 
30 1 1 -0.0188744 -0.0333744 0.00395557 0 0 0 -0.0011395 -0.000499813 -0.00121179 -0.000953255 0.000460721 -0.00058941 0.101744 -0.40861 0.352727 0.004 300 0 
215 1 1 -0.0060386 -0.0313262 0.00390666 0 0 0 -0.000693325 5.22173e-05 -0.000575024 -0.00194661 0.000478501 -0.000166567 0.0495849 -0.218238 -0.246843 0.004 300 0 
74 1 1 0.00184337 -0.0338165 0.00390868 0 0 0 0.000345985 0.000333965 -0.000602855 -0.000163359 -0.000698033 8.99575e-05 0.0342735 0.0523294 -0.317797 0.004 300 0 
24 1 1 0.00918483 -0.0308316 0.00391086 0 0 0 0.000450766 -0.00031258 -0.000602114 -0.000803754 4.43184e-05 0.000493551 0.194994 0.125128 0.221524 0.004 300 0 
198 1 1 0.0258932 -0.0339118 0.00395577 0 0 0 0.000444519 -0.00107864 0.000406979 6.16663e-05 0.000486224 -0.000165283 0.225357 0.254794 0.0379217 0.004 300 0 
161 1 1 0.0335079 -0.0316388 0.00391536 0 0 0 0.000136562 -0.000475651 -0.000455976 -0.000540974 0.000263554 1.58842e-05 0.0430045 -0.0513167 0.0850372 0.004 300 0 
8 1 1 -0.0322765 -0.0264253 0.00398489 0 0 0 -0.000544817 0.000157215 -0.000298248 -0.00225469 -0.00229185 -0.00106098 0.279394 0.386977 -0.215989 0.004 300 0 
12 1 1 -0.0244189 -0.0277103 0.0038599 0 0 0 -0.00145174 -0.000498395 -0.00144584 -0.00048778 -0.000192225 -0.000112738 0.297857 -0.233738 -0.198071 0.004 300 0 
188 1 1 -0.0131762 -0.0277789 0.00396981 0 0 0 -0.000725998 0.000781852 -0.000456485 -0.00155413 -0.00150231 -0.00189172 -0.258405 0.0178317 0.294032 0.004 300 0 
77 1 1 -0.000108865 -0.0260785 0.00390267 0 0 0 -0.000790181 0.000297828 -0.00072259 -0.00120359 -0.000530583 -0.000987714 -0.00800683 -0.161089 0.47593 0.004 300 0 
113 1 1 0.0165732 -0.0280194 0.00387855 0 0 0 0.000530885 -0.00060197 -0.00013379 -0.000430046 0.000130401 0.00108081 0.125481 0.15335 -0.448412 0.004 300 0 
183 1 1 0.038437 -0.0254001 0.00393586 0 0 0 0.000315123 -0.000267403 -0.000401653 -0.00151725 6.02221e-05 -0.00103651 -0.0554152 0.0492057 -0.0247914 0.004 300 0 
162 1 1 -0.039633 -0.0234181 0.00390748 0 0 0 -0.000368332 0.000530214 0.000584222 -0.00132806 -0.00114609 -0.00232455 -0.190137 -0.145763 0.0869088 0.004 300 0 
53 1 1 -0.027223 -0.0202626 0.00395636 0 0 0 -0.00078699 0.000135226 -0.000320918 -0.00127687 -0.000922893 -0.00164938 0.0101099 -0.0594662 0.276112 0.004 300 0 
148 1 1 -0.0187651 -0.0220754 0.00393443 0 0 0 -0.00122387 0.000813655 -0.000551767 -0.000162509 -0.00157532 0.000973462 -0.115009 -0.27272 0.323499 0.004 300 0 
195 1 1 -0.00729458 -0.0215614 0.00395014 0 0 0 0.00109414 0.000155054 -0.000525451 5.32307e-05 0.00140968 -0.0017327 0.068441 0.270859 -0.338164 0.004 300 0 
179 1 1 0.00731253 -0.0231095 0.00393578 0 0 0 0.000326308 0.000134792 0.000283601 7.36355e-05 -0.00071708 0.000784618 -0.0572043 0.186057 -0.167167 0.004 300 0 
95 1 1 0.0148441 -0.020308 0.00392782 0 0 0 0.000151656 -0.000338302 0.00015557 0.000102587 -0.00018687 0.0012228 0.0353497 0.0721926 0.496213 0.004 300 0 
76 1 1 0.0230045 -0.0233067 0.00396085 0 0 0 0.001894 -0.00240814 -0.000258795 -0.000630007 0.000893575 0.00240844 0.662974 0.565288 -0.0524167 0.004 300 0 
100 1 1 0.032574 -0.0200842 0.0038853 0 0 0 4.54153e-05 -0.00148727 -0.000120288 -0.000823613 0.0022972 0.00227604 0.409724 0.0687996 -0.150401 0.004 300 0 
65 1 1 -0.043078 -0.0162831 0.00393519 0 0 0 8.28219e-05 -0.000305449 8.98189e-06 -0.000350286 0.000435657 -0.000208374 0.061791 0.0645675 -0.133079 0.004 300 0 
102 1 1 -0.0351756 -0.0154674 0.00394062 0 0 0 2.75794e-05 -0.00197473 0.000282296 -3.45545e-06 0.00167565 -0.00169942 0.167954 -0.0525137 0.770568 0.004 300 0 
213 1 1 -0.013268 -0.0162763 0.00397394 0 0 0 0.000386844 0.000963289 -0.000260395 0.000453483 3.57811e-05 -0.0015983 -0.197312 -0.0925274 -0.0428961 0.004 300 0 
10 1 1 0.00110929 -0.0182486 0.00473944 0 0 0 0.000895902 0.00121478 -0.000987512 0.000728527 -0.000617906 0.000159332 0.250455 -0.705831 -0.215341 0.004 300 0 
5 1 1 0.00878535 -0.0152593 0.00390194 0 0 0 0.000175421 -0.000114956 0.000116648 -0.000300359 0.000169026 -0.000122236 -0.0807706 0.0362089 -0.442756 0.004 300 0 
96 1 1 0.0211612 -0.0155214 0.00395081 0 0 0 0.000412789 -0.00125022 0.00032656 -0.000387889 0.000704069 0.00226316 0.227847 0.0923231 -0.858705 0.004 300 0 
167 1 1 0.0421824 -0.018394 0.00392226 0 0 0 0.000111482 2.24882e-05 -0.000728771 -0.00112249 0.000929297 -0.000376056 0.216856 -0.00472986 0.189045 0.004 300 0 
124 1 1 -0.0289962 -0.0104752 0.00394429 0 0 0 -0.000914753 0.000581953 -6.91523e-05 -0.000150395 -0.000251826 -0.00248873 -0.0999024 -0.211921 -0.595499 0.004 300 0 
220 1 1 -0.0217722 -0.0144894 0.00398066 0 0 0 -0.000770338 0.0014101 0.000424245 -0.00018964 0.000977507 -0.000656067 0.00717544 -0.321127 -0.238911 0.004 300 0 
144 1 1 -0.00538806 -0.0138018 0.00388038 0 0 0 0.00204015 0.000866262 -0.000819431 0.00158952 0.00054627 0.00093113 -0.0867156 0.51766 0.171796 0.004 300 0 
26 1 1 0.00253361 -0.0104707 0.00391087 0 0 0 0.0013471 0.00141482 -0.00123803 -0.000111628 0.0009432 0.000652138 -0.455814 0.146836 0.0373967 0.004 300 0 
194 1 1 0.0287311 -0.013108 0.00392527 0 0 0 0.000510576 -0.00133215 0.000161868 -0.000842658 0.00158887 0.0037032 0.273877 0.0934099 0.705346 0.004 300 0 
37 1 1 0.036667 -0.012235 0.00393015 0 0 0 0.00168015 -0.0024255 0.000188149 -0.00121411 0.00229156 0.00152754 0.604938 0.432483 -1.43927 0.004 300 0 
219 1 1 0.0447206 -0.0108945 0.00390102 0 0 0 5.12862e-05 0.00058781 -2.85988e-05 0.000188681 0.000493929 0.000336142 -0.105205 0.0369687 -0.102628 0.004 300 0 
636 1 1 -0.0451992 -0.00864645 0.00392211 0 0 0 0.000445721 1.09044e-06 -0.000394344 -0.000584466 0.00067917 0.000997633 -0.0981753 0.0506462 -0.0144034 0.004 300 0 
39 1 1 -0.0161734 -0.00885955 0.00388488 0 0 0 0.00127798 0.000911171 -0.000600766 0.00178203 0.000750714 -0.00155952 -0.13497 0.502961 -0.124227 0.004 300 0 
171 1 1 -0.00398047 -0.00598197 0.00392359 0 0 0 0.000982752 0.00089507 -0.00093259 0.000742716 0.000777191 0.00079866 -0.00229532 0.238885 0.130467 0.004 300 0 
200 1 1 0.0146152 -0.00985455 0.00396396 0 0 0 0.000921319 -0.00155596 0.000154418 -0.00011568 -0.00050927 0.00072182 0.222233 0.133288 -0.103371 0.004 300 0 
21 1 1 0.0222445 -0.00761821 0.00393851 0 0 0 0.000923334 -0.00176382 0.000817839 -0.000311128 0.000225432 0.000961775 0.438423 0.228439 0.449346 0.004 300 0 
17 1 1 0.0298501 -0.0052125 0.00394404 0 0 0 0.000843197 -0.0015305 0.00048715 -0.00206932 0.00271796 0.000946939 0.296574 0.260118 -0.696643 0.004 300 0 
477 1 1 -0.0446006 -0.000714918 0.00396576 0 0 0 0.000985266 0.000325958 -0.00041292 -0.000559554 0.000622009 -0.000494731 0.0303217 0.257772 0.0887213 0.004 300 0 
140 1 1 -0.0352739 -0.00370454 0.00386972 0 0 0 0.000774857 -0.000349056 0.000514622 -0.000980392 -0.000917557 0.000418035 0.0328182 0.20441 0.311224 0.004 300 0 
119 1 1 -0.0273988 -0.0026965 0.00395972 0 0 0 0.000243228 0.000968936 -0.000640192 0.000302369 -0.00150565 -0.00206564 -0.0378334 0.018647 0.218738 0.004 300 0 
207 1 1 -0.019509 -0.00169315 0.00389243 0 0 0 -3.74917e-05 0.00104249 -0.000873484 0.00220123 0.00120232 -0.00272914 -0.194085 -0.0212349 0.411442 0.004 300 0 
69 1 1 -0.0111822 -0.00265265 0.00392756 0 0 0 0.000215601 0.00126012 -0.00102038 0.00297899 0.000153586 -0.00094289 -0.149225 -0.146599 -0.118718 0.004 300 0 
221 1 1 0.00874874 -0.00445845 0.00393223 0 0 0 0.000765167 -0.00101325 -0.000104842 -0.00165082 -0.000524409 -0.00106721 0.121278 0.00985728 -0.731721 0.004 300 0 
457 1 1 0.0163681 -0.00207198 0.00396132 0 0 0 0.00172164 -0.00157247 -0.000581624 -0.000163697 -0.000574762 -8.2009e-05 0.373372 0.439105 0.383268 0.004 300 0 
155 1 1 0.0378965 -0.00226121 0.00393431 0 0 0 0.00154367 0.00214244 -0.000660813 -5.53616e-05 -0.00251414 0.00334802 0.012119 0.284655 1.19905 0.004 300 0 
665 1 1 0.045921 -0.00310316 0.00394545 0 0 0 -0.000643014 0.000957612 -0.000293822 -0.00149158 0.00074407 -0.000546759 -0.142023 -0.178251 0.297177 0.004 300 0 
120 1 1 0.00918727 -0.0371136 0.0087512 0 0 0 0.000526369 -0.000189899 -0.000665906 -0.000392556 0.00165046 0.00164917 -0.0721313 0.0270751 -0.195011 0.004 300 0 
9 1 1 -0.0247088 -0.0333622 0.0093805 0 0 0 -0.00156331 -0.00165667 -0.00254095 0.00256916 0.00470522 0.00126144 0.111912 0.123427 0.0622105 0.004 300 0 
101 1 1 -0.0188732 -0.0277192 0.00955492 0 0 0 -0.00243183 2.25241e-05 -0.00233044 0.00171992 -0.00272686 0.00586516 -0.453928 0.342014 0.0450706 0.004 300 0 
48 1 1 0.022191 -0.0292702 0.00923174 0 0 0 0.000141929 -0.00154222 0.000116011 -0.000734665 0.00019273 0.000541135 -0.294845 -0.200441 -0.0253507 0.004 300 0 
75 1 1 0.029358 -0.0261807 0.00784362 0 0 0 0.000327026 -0.00152021 -4.45975e-05 -0.0012203 0.00181821 0.000442968 0.110615 0.32808 0.1061 0.004 300 0 
46 1 1 -0.0328424 -0.0205545 0.00956406 0 0 0 9.44829e-05 -0.000662132 0.00129185 -0.00240709 -0.000855927 -0.00396412 -0.435178 0.111717 -0.653016 0.004 300 0 
33 1 1 -0.0130475 -0.0220256 0.0094986 0 0 0 -0.000884144 0.00121514 -0.000933425 0.000351013 -0.00346182 -0.00240868 0.108778 0.363662 -0.365427 0.004 300 0 
11 1 1 0.0268935 -0.0187573 0.009225 0 0 0 0.000675003 -0.00123319 0.000170125 -0.00194842 0.00222055 0.00262011 -0.374879 -0.00664882 -0.153625 0.004 300 0 
71 1 1 -0.0372877 -0.00951655 0.00878351 0 0 0 0.00124235 -0.0021428 0.0011965 -0.00280332 0.00101966 0.000520834 -0.00881777 -0.0499349 -0.272744 0.004 300 0 
62 1 1 -0.0228232 -0.00770129 0.00814852 0 0 0 0.000777846 0.00173251 -0.000212995 0.00132347 0.00028924 -0.00321273 -0.448295 0.236051 0.567938 0.004 300 0 
19 1 1 -0.00974687 -0.00904862 0.00849613 0 0 0 0.00248096 0.000882764 -0.0018385 0.00100984 -0.000274102 -0.000230854 -0.188014 -0.412785 -0.131583 0.004 300 0 
187 1 1 0.00796948 -0.0098667 0.00974168 0 0 0 0.00199595 -0.00160363 0.000789587 -0.00197558 0.000628074 -0.00199363 0.140633 0.989221 0.272482 0.004 300 0 
157 1 1 0.0395648 -0.00752938 0.00963185 0 0 0 0.00552462 -0.000118915 -0.00355433 -0.00393844 -0.0027047 0.00564704 -0.691018 -0.650591 0.120565 0.004 300 0 
18 1 1 0.00229413 -0.00407137 0.00854814 0 0 0 0.000680622 0.00174706 -0.00200545 -0.000380922 -4.36635e-05 0.00343159 0.333266 -0.172961 0.182471 0.004 300 0 
185 1 1 -0.00530366 -0.0457373 0.010438 0 0 0 0.000485439 1.74469e-05 -0.00097008 0.000182217 -0.000343375 -0.000505783 -0.266472 -0.105284 -0.0562104 0.004 300 0 
83 1 1 0.0025753 -0.0459514 0.011248 0 0 0 1.19265e-05 0.000520257 -0.000382757 0.000457078 0.00208373 0.000803214 -0.104786 -0.0178922 0.110633 0.004 300 0 
58 1 1 -0.0218482 -0.0405883 0.0112705 0 0 0 -0.00123475 0.000709336 -0.000964541 0.000816317 0.00191934 -0.00178878 -0.253513 -0.235393 0.433423 0.004 300 0 
105 1 1 -0.0135869 -0.0439677 0.010881 0 0 0 0.00153364 -0.000562093 -0.000933463 0.00138628 0.00010196 -0.00165346 -0.182267 0.481849 -0.516912 0.004 300 0 
223 1 1 0.0104022 -0.0448733 0.0106532 0 0 0 0.000417182 0.000376575 -0.000409608 0.000812408 0.00142559 0.00140109 -0.0630118 0.0928885 -0.212587 0.004 300 0 
217 1 1 0.0179458 -0.0424279 0.0108295 0 0 0 -0.000221668 -0.000272315 -0.000597323 -0.000441615 0.000140355 -0.00115392 0.00793747 -0.171761 0.0487489 0.004 300 0 
6 1 1 -0.0162536 -0.0350318 0.0113173 0 0 0 -0.00199065 0.000970346 -0.000159222 0.000323507 -0.00137118 -0.00249582 -0.142102 -0.191473 -0.271282 0.004 300 0 
151 1 1 -0.00800872 -0.0382689 0.0108127 0 0 0 0.0014016 -0.000548029 -0.00178502 -0.000807224 0.00145837 0.0029659 0.400873 0.229874 0.420256 0.004 300 0 
2 1 1 0.000454017 -0.0383071 0.0102767 0 0 0 0.00051834 0.000603672 -0.00189643 0.000683787 0.000798509 0.0012949 0.197379 0.167743 -0.0797507 0.004 300 0 
117 1 1 0.0249229 -0.0387418 0.010916 0 0 0 -0.000473455 -8.9508e-05 -0.00040548 -5.85281e-05 -0.000214066 0.00131816 -0.199658 -0.000990611 0.0932213 0.004 300 0 
13 1 1 -0.0323394 -0.0327611 0.0115448 0 0 0 -0.00137716 -2.36853e-05 -0.00166844 0.00053892 0.000512644 -0.00231265 -0.0926996 0.350878 -0.508683 0.004 300 0 
193 1 1 -0.00981243 -0.0305055 0.010784 0 0 0 -0.000424526 -0.00127637 -0.000439616 -0.00118349 -0.000559234 0.00111025 0.528759 0.505846 -0.267323 0.004 300 0 
47 1 1 -0.00141517 -0.0305668 0.0103712 0 0 0 -9.85913e-05 -0.00034836 -0.000389482 -0.000355878 -0.000835447 -0.0016185 0.0139028 -0.150831 0.327447 0.004 300 0 
153 1 1 0.00648048 -0.0300138 0.0112997 0 0 0 0.000527661 -0.000747916 -0.00091153 -0.000434767 0.000835482 0.00335752 -0.47638 -0.0445679 0.26345 0.004 300 0 
41 1 1 0.0147979 -0.0317923 0.010624 0 0 0 0.000408925 -0.00083129 -2.75789e-05 -0.000406455 0.000453471 0.000796125 -0.113146 0.0478506 -0.110698 0.004 300 0 
163 1 1 0.0311405 -0.033922 0.0111343 0 0 0 -0.00037617 -0.000393382 -0.00116962 -0.00146704 -0.00104223 0.00102117 -0.112369 -0.126042 -0.156293 0.004 300 0 
214 1 1 -0.0374989 -0.0268369 0.0107026 0 0 0 -0.00105152 0.000694749 0.000802993 -0.00120051 0.000383328 -0.00243767 0.577676 -0.0580679 0.275267 0.004 300 0 
210 1 1 0.0364577 -0.0281091 0.0111164 0 0 0 0.000202319 -0.00168178 -0.00169707 -0.00122071 -0.000739926 -0.00120037 0.0134018 0.141815 -0.1723 0.004 300 0 
108 1 1 -0.0261361 -0.0246082 0.010888 0 0 0 -0.00130186 -0.0042251 -6.55072e-05 -0.000615242 0.00135709 0.000420953 0.838177 0.223597 -0.0561534 0.004 300 0 
40 1 1 -0.00552466 -0.0238603 0.0113449 0 0 0 -0.000513876 -0.00135337 -0.00100698 -0.000948093 -0.000467276 5.70818e-05 0.102032 -0.186669 0.0583523 0.004 300 0 
55 1 1 0.00234694 -0.023239 0.0108267 0 0 0 -0.00100419 -0.0010728 -0.00146074 -0.000946831 0.000328139 0.00142112 0.394944 0.287925 -0.0106852 0.004 300 0 
91 1 1 0.0120522 -0.0243963 0.0101529 0 0 0 0.00119875 -0.00123284 -0.0001259 -0.000269117 -0.000283153 0.000775131 0.15504 -0.02615 -0.11092 0.004 300 0 
112 1 1 0.0192958 -0.0205781 0.0104757 0 0 0 0.000845854 -0.00117794 -0.000441865 -0.00105329 0.000462267 0.00323481 0.465395 -0.115432 0.0976253 0.004 300 0 
178 1 1 0.031823 -0.022534 0.0144529 0 0 0 0.000609204 -0.00138733 -0.00121298 -0.00227674 0.00105162 0.000660901 0.0629261 -0.203027 -0.0148403 0.004 300 0 
131 1 1 0.0407691 -0.021491 0.0110532 0 0 0 0.0005507 -0.00174644 -0.0021645 -0.00112916 -1.68108e-06 -0.00119289 0.138113 -0.0414357 0.0519265 0.004 300 0 
160 1 1 -0.0414682 -0.0199402 0.010816 0 0 0 -0.000748874 0.000951768 0.00152667 9.33872e-05 -0.00166458 -0.0032289 -0.0442828 -0.186451 -0.315298 0.004 300 0 
43 1 1 -0.036114 -0.0150738 0.014278 0 0 0 0.00024974 -0.00137626 0.00271029 -0.0029609 -0.00269356 -0.00938241 -0.695188 0.738982 -0.621305 0.004 300 0 
4 1 1 -0.0270584 -0.0151279 0.0100739 0 0 0 -0.00105043 0.000318358 -0.000843384 8.84467e-06 -0.001647 -0.00179178 0.231752 0.247665 0.740072 0.004 300 0 
104 1 1 -0.0203194 -0.0192353 0.0111846 0 0 0 -0.00232838 -0.000181639 -0.000456055 0.00178468 -0.000706201 -0.00215299 -0.311798 0.367924 0.815853 0.004 300 0 
20 1 1 -0.0075373 -0.0162318 0.0110658 0 0 0 0.00443746 0.000253664 -0.00164458 -0.00164709 0.000737425 0.00123614 0.332791 -0.134354 0.10187 0.004 300 0 
45 1 1 0.000832124 -0.0164055 0.0146093 0 0 0 0.00169304 -0.00114572 -0.000219992 -0.000115914 -0.000321473 0.000392461 0.133578 -0.327512 -1.08366 0.004 300 0 
159 1 1 0.00796398 -0.0176837 0.0113615 0 0 0 0.000275133 -0.00279777 -0.000290057 -0.000876291 0.000101904 -0.000568029 0.839848 -0.0382984 0.0318293 0.004 300 0 
136 1 1 0.034809 -0.0163439 0.0104683 0 0 0 0.000698062 -0.00181465 -0.000464662 -0.00253393 0.00187324 0.00261591 -0.206975 0.126069 0.0693169 0.004 300 0 
177 1 1 -0.0443269 -0.0125322 0.0108225 0 0 0 -0.000312633 0.000774791 0.000650414 -0.00144284 0.000974177 0.000498923 -0.26151 -0.24516 0.148708 0.004 300 0 
139 1 1 -0.016856 -0.0121149 0.0110319 0 0 0 0.00131642 -0.000386922 -0.00163046 0.0019304 -0.00190548 -0.00262359 0.657672 0.2678 -1.35145 0.004 300 0 
211 1 1 -0.00213731 -0.0104178 0.0103147 0 0 0 0.00364542 0.00116866 -0.00144186 -0.00220441 0.000823537 0.000858997 0.126247 0.379987 0.332273 0.004 300 0 
54 1 1 0.014954 -0.0139221 0.0108051 0 0 0 0.00103477 -0.0019534 0.000715552 -0.00162457 0.000196404 0.00082972 -0.0712824 0.0866525 -0.0179568 0.004 300 0 
84 1 1 0.0232973 -0.0118127 0.0106442 0 0 0 0.00145555 -0.00140197 4.61378e-05 -0.00142933 0.00144581 0.0026793 0.303752 -0.407025 -0.0601351 0.004 300 0 
180 1 1 0.0438062 -0.014126 0.0110275 0 0 0 0.000581349 -0.000895651 -0.000642927 -0.000588097 -0.00217728 -0.000258142 0.794557 -0.0200209 -0.0248419 0.004 300 0 
103 1 1 0.0174702 -0.00638472 0.0105664 0 0 0 0.00234837 -0.00146853 -0.000532594 -0.00112724 0.000624773 0.00159652 -0.401403 -0.199842 -0.239822 0.004 300 0 
156 1 1 0.0309061 -0.00946927 0.0106136 0 0 0 0.00154634 -0.00200123 0.000891752 -0.000687773 0.00215113 0.00417016 0.275605 0.540627 -0.142941 0.004 300 0 
197 1 1 -0.0457826 -0.00471457 0.0107657 0 0 0 -0.000742443 0.000996891 -0.000218202 0.0042936 0.00192996 0.00304628 0.00797884 -0.345975 -0.0827072 0.004 300 0 
87 1 1 -0.0386048 -0.00377003 0.0141371 0 0 0 -0.000896237 0.00115478 -0.00115647 -0.00312302 0.00451652 0.0141715 -1.01035 -0.246397 0.613763 0.004 300 0 
130 1 1 -0.031363 -0.00385193 0.0107731 0 0 0 0.00305699 0.00167947 0.000573102 -0.00112928 -0.00106648 -0.00311345 -0.690926 0.328774 -0.203277 0.004 300 0 
604 1 1 -0.0224874 -0.000289672 0.0110731 0 0 0 2.55633e-05 0.00285241 -0.00225858 0.00167425 0.000208181 -0.00391815 -0.0782076 -0.120017 -0.739543 0.004 300 0 
146 1 1 -0.0155323 -0.00397179 0.0103984 0 0 0 0.000369835 0.00021362 -0.00308374 0.00288652 0.00134247 -0.00274032 0.405709 -0.146555 0.208694 0.004 300 0 
57 1 1 -0.00520733 -0.00311164 0.0111967 0 0 0 0.00219018 0.00173609 -0.0016812 0.000354578 0.000561417 0.000746374 -0.274389 0.29928 0.706783 0.004 300 0 
493 1 1 0.0117457 -0.000882674 0.0103604 0 0 0 0.00155505 -0.00141744 -0.00118908 -0.00192685 0.00138673 -0.00138062 -0.156388 0.65678 0.590485 0.004 300 0 
31 1 1 0.0250713 -0.00405734 0.0104363 0 0 0 0.00188419 -0.00193381 0.000828006 -0.00156012 0.000882975 0.00150703 -0.328217 0.339479 -0.074934 0.004 300 0 
588 1 1 0.0326089 -0.00175027 0.010533 0 0 0 0.00164064 -0.00196542 0.000645588 -0.00183193 0.00249418 0.00261907 -0.17238 -0.365342 0.129475 0.004 300 0 
63 1 1 0.0459272 -0.00334201 0.011931 0 0 0 0.000454798 0.00587591 0.000514458 -0.00225986 -0.000797048 -0.000271215 -0.509027 -0.722796 -0.503224 0.004 300 0 
107 1 1 -0.00844722 -0.0452839 0.0176872 0 0 0 0.000461283 -0.000306606 -0.00157212 0.000284729 -0.00104848 0.00119344 -0.246921 0.781798 -0.216413 0.004 300 0 
222 1 1 -0.00136676 -0.0418024 0.0171378 0 0 0 0.00108695 -0.00139749 -0.00375057 -0.000616627 -0.000870104 0.00257009 0.685417 0.0473417 0.0124704 0.004 300 0 
142 1 1 0.00618867 -0.0401536 0.0154036 0 0 0 0.000305613 0.000279323 -0.00114463 -0.000596364 0.000581801 0.00396199 0.0460497 -0.325227 0.356236 0.004 300 0 
172 1 1 0.0116294 -0.0446251 0.0190059 0 0 0 -0.000852685 -0.000499074 -0.00118832 0.000432196 -0.000232806 0.00207289 -0.00253915 -1.39068 0.410947 0.004 300 0 
109 1 1 0.0203929 -0.0412979 0.0183386 0 0 0 -0.00292028 -0.00188269 -0.00116172 -0.00179234 -0.0010869 0.000928609 0.114069 -0.240834 0.272875 0.004 300 0 
150 1 1 -0.0273195 -0.0370907 0.0158757 0 0 0 -0.000364159 0.000264422 -0.0012079 0.00212627 0.0012209 -0.00139982 -0.617948 0.177074 0.171386 0.004 300 0 
38 1 1 -0.019757 -0.0373633 0.0182422 0 0 0 0.00149478 0.000621581 -0.00165905 0.00398399 0.00406391 0.00284384 -0.584215 0.327342 -0.443064 0.004 300 0 
199 1 1 -0.0118222 -0.0370154 0.0176537 0 0 0 -0.000368316 -0.00540746 -0.000579443 -0.00515165 -6.61526e-05 0.00847415 -0.0498855 -0.363499 0.376484 0.004 300 0 
93 1 1 0.0137675 -0.0377674 0.0156771 0 0 0 -0.000150933 -0.000383742 5.50569e-05 -0.000647928 -0.000456287 0.000660023 0.140598 0.231858 -0.354297 0.004 300 0 
64 1 1 0.0279618 -0.036529 0.0179526 0 0 0 0.000523745 0.000606516 -0.000695447 0.00139981 0.00127788 0.00654372 -0.0762992 0.544527 -0.0500507 0.004 300 0 
22 1 1 -0.032727 -0.0324446 0.0194718 0 0 0 0.000207443 0.000977961 -0.00218029 0.00060585 0.00132887 -0.00261738 -0.541277 0.0297 0.120315 0.004 300 0 
174 1 1 -0.0224482 -0.0301991 0.0162674 0 0 0 0.00154908 -0.00141284 -0.000167056 0.0057907 0.00120714 0.00844559 0.322426 0.424772 0.77887 0.004 300 0 
32 1 1 -0.00429382 -0.0344129 0.0167038 0 0 0 -0.00148162 -0.000795791 0.000790584 -0.00433171 0.00374888 0.00131488 0.383541 -0.0168789 0.387014 0.004 300 0 
128 1 1 0.0034817 -0.0331542 0.0179457 0 0 0 -0.000270915 3.90473e-05 -0.000447268 -0.00238812 0.00127004 0.00447999 0.538224 -0.129317 -0.69765 0.004 300 0 
88 1 1 0.0112935 -0.0304686 0.0176058 0 0 0 -4.12691e-06 -0.000973259 0.000149385 0.00173743 -0.00154234 0.00125474 0.347255 -0.322204 0.273207 0.004 300 0 
137 1 1 0.0207282 -0.0338765 0.015562 0 0 0 0.000332743 -0.00118897 0.00122712 -0.000333167 -0.00116198 0.000507138 0.302286 0.0577576 -0.387561 0.004 300 0 
154 1 1 0.033981 -0.0311515 0.0180515 0 0 0 0.000160396 -0.000218043 -0.00119137 -0.000374431 -5.20892e-05 -0.000219915 -0.324126 -0.20265 -0.140869 0.004 300 0 
52 1 1 -0.031999 -0.0252665 0.0161561 0 0 0 -0.00236493 0.00189876 0.00107652 0.000415571 0.000268067 -0.000413058 -1.67458 -0.356858 -0.832903 0.004 300 0 
80 1 1 -0.00961962 -0.026519 0.0176057 0 0 0 -0.00102623 -0.000617021 0.000252734 0.00234565 0.00224429 0.00180677 -0.847628 -0.380459 0.299656 0.004 300 0 
125 1 1 -0.00117007 -0.0267245 0.0173687 0 0 0 0.00107759 0.0011774 -0.00178626 -0.00265711 0.00124058 -0.000508362 -1.03482 0.924448 -0.101296 0.004 300 0 
72 1 1 0.017949 -0.0264699 0.0155974 0 0 0 0.00162922 -0.00128349 -0.0015691 -0.00125751 -0.000862901 0.00255946 -0.184526 0.309804 -0.0630275 0.004 300 0 
34 1 1 0.0269402 -0.0287437 0.0154803 0 0 0 0.000575023 -0.000612956 -0.00112587 -0.00055334 -0.000783795 6.10059e-05 0.0213966 0.381246 0.0881912 0.004 300 0 
218 1 1 -0.0395986 -0.0234647 0.0176885 0 0 0 -0.00297052 0.00110667 0.00137928 0.0032037 -0.00133992 -0.00383413 0.288112 -0.743575 0.665071 0.004 300 0 
70 1 1 -0.0247375 -0.022995 0.0185223 0 0 0 -0.000587193 0.000646771 0.000758465 0.0016131 0.00327179 0.00316444 -0.403654 0.277156 -0.332827 0.004 300 0 
132 1 1 -0.0171442 -0.0242473 0.0164732 0 0 0 -0.00158925 -0.00115851 -0.000630898 -0.00660168 -0.000237818 0.00703514 0.268712 -0.182276 -0.183873 0.004 300 0 
196 1 1 0.00714767 -0.0237366 0.0170662 0 0 0 0.000977297 -0.00127796 -0.00255067 -0.000255521 -0.000696887 0.00527117 -0.999409 0.351143 -0.56707 0.004 300 0 
362 1 1 0.0243803 -0.0214344 0.0171594 0 0 0 0.000144357 -0.00118155 -0.00265913 0.000122784 0.000520603 1.53767e-06 -0.555241 0.104458 0.24196 0.004 300 0 
49 1 1 0.0387592 -0.0248261 0.0179845 0 0 0 -0.000313386 -0.00184857 -0.00268574 -0.000548106 -0.000559945 -0.0021606 -0.664924 -0.0838116 -0.0209488 0.004 300 0 
173 1 1 -0.0431169 -0.0163131 0.0177272 0 0 0 -0.000236465 0.000939157 0.00172554 -0.000484329 -0.00327779 -0.00694379 0.664431 -0.257284 -0.162383 0.004 300 0 
50 1 1 -0.0295299 -0.0167404 0.0183222 0 0 0 0.000417058 0.00213705 -0.00013713 -0.00274896 0.00562732 -0.00231695 -0.21255 -0.36062 0.558215 0.004 300 0 
202 1 1 -0.0135084 -0.0171917 0.0161318 0 0 0 0.00171552 -0.00372357 -0.0057947 -0.00479133 0.00131365 0.00159242 -0.0646325 -0.933299 0.856075 0.004 300 0 
86 1 1 -0.00524509 -0.019937 0.0183061 0 0 0 -0.00273996 0.00100746 -0.00401645 -0.00043169 0.0013648 0.00012362 0.947326 -0.383268 -0.541811 0.004 300 0 
129 1 1 0.013889 -0.0196721 0.0162428 0 0 0 0.00100205 -0.00226927 -0.000560436 -0.000690962 0.00222888 0.00146278 0.0490037 0.232991 0.391117 0.004 300 0 
82 1 1 0.0291319 -0.0151495 0.0159133 0 0 0 0.000918466 -0.00162832 -5.66477e-05 -0.00122696 0.00295445 0.00340292 0.547989 -0.0833587 -0.474366 0.004 300 0 
1 1 1 0.0424715 -0.01782 0.0178701 0 0 0 -0.00173782 -0.00386688 -0.00486604 -0.000152384 -0.000935127 0.000442057 0.00221455 -0.722624 0.0856049 0.004 300 0 
168 1 1 -0.0225035 -0.0136391 0.0164064 0 0 0 0.000788915 0.00356017 -0.0032789 0.001808 -0.000832947 -0.00120892 -0.970101 0.548455 -0.336236 0.004 300 0 
121 1 1 -0.00528691 -0.0120435 0.0174256 0 0 0 0.00549493 0.00252339 -0.00247757 -0.00226671 -0.00112957 0.00347625 -1.35299 -0.722336 -0.896385 0.004 300 0 
28 1 1 0.00805552 -0.0138467 0.0182832 0 0 0 0.00289984 -0.00758324 0.00164707 -0.000849562 0.00117821 0.00146971 0.391822 0.266665 -1.18801 0.004 300 0 
42 1 1 0.0200353 -0.014805 0.0172513 0 0 0 0.000598368 -0.00266251 -0.00184415 -0.000265816 0.00226434 0.00258966 0.417093 0.487839 -0.272252 0.004 300 0 
60 1 1 0.0376085 -0.0116281 0.0161646 0 0 0 0.000609707 0.000291516 -0.000297593 -0.00785565 0.00196496 0.00622423 0.885905 1.42843 1.77087 0.004 300 0 
135 1 1 -0.0452121 -0.00865117 0.0176865 0 0 0 0.000184972 0.00261116 0.00142693 0.00625192 -0.000735632 0.00620239 -0.118934 0.636736 -0.0217288 0.004 300 0 
81 1 1 -0.0376174 -0.00950937 0.0199417 0 0 0 -0.00255836 0.0012062 -0.00842905 0.0017505 0.00839255 0.00181106 -0.204865 0.285604 -0.258029 0.004 300 0 
190 1 1 -0.0303629 -0.00904918 0.0166752 0 0 0 0.000176912 0.00103753 0.00147542 -0.000108687 0.00170867 -0.00766734 0.607114 -1.02859 -0.332664 0.004 300 0 
7 1 1 -0.0205083 -0.00597855 0.0162354 0 0 0 0.002176 0.00296435 -0.00708297 0.00366313 -0.00328006 -0.00176132 0.161445 0.549202 0.531318 0.004 300 0 
145 1 1 -0.0120759 -0.00830681 0.0160632 0 0 0 0.00507638 0.000175764 -0.0035005 -0.00539005 0.0012799 0.00271089 -0.236178 1.24703 1.31387 0.004 300 0 
186 1 1 0.00195902 -0.00888323 0.0169761 0 0 0 0.00679277 -0.00164373 -0.00064439 0.00214748 -0.00272405 -0.00242244 -0.500602 -0.691542 -0.192731 0.004 300 0 
56 1 1 0.0144216 -0.00914953 0.0173988 0 0 0 0.00154081 -0.0030371 0.000686114 -0.000889918 0.00117215 0.000375612 0.981174 0.140727 -0.409637 0.004 300 0 
191 1 1 0.0221285 -0.00719022 0.0170328 0 0 0 0.00312727 -0.00428293 0.0024633 0.000129492 0.00302388 0.00303279 1.11673 0.340273 -0.451737 0.004 300 0 
208 1 1 0.0314543 -0.00603287 0.0177563 0 0 0 0.00592877 -0.00571914 0.00398673 -0.000871791 0.00144087 0.00492475 0.610449 0.392352 -0.216039 0.004 300 0 
92 1 1 0.0451096 -0.00927993 0.0172146 0 0 0 0.000625705 0.00541756 -0.000358962 -0.00194424 0.000492622 -0.00317256 -0.504116 -0.769379 -0.671149 0.004 300 0 
192 1 1 -0.0460809 -0.000760093 0.017627 0 0 0 -0.00077152 0.00322877 0.00100102 0.00990935 0.00190075 0.00519644 -0.467545 -0.00664003 0.75991 0.004 300 0 
462 1 1 -0.0272294 -0.00177333 0.0172839 0 0 0 0.00211566 -0.000220715 0.00227191 0.00132313 -0.00297962 -0.00774571 -0.595805 0.385803 -0.173143 0.004 300 0 
450 1 1 -0.0128067 -0.000760821 0.0182683 0 0 0 0.000125191 -0.000169417 -0.00315787 -0.00412637 -0.00150405 6.31187e-05 0.0670874 -0.535427 -0.0193409 0.004 300 0 
111 1 1 -0.00561948 -0.00407614 0.0190687 0 0 0 0.000603202 0.00107274 -0.00215281 -0.00234794 0.00267305 0.00131987 0.602582 -0.569592 -0.120005 0.004 300 0 
622 1 1 0.000965495 -0.0010912 0.015756 0 0 0 0.00407747 -0.00161907 -0.00203221 0.000497964 -0.000114544 0.00303746 0.685764 0.724887 -1.70338 0.004 300 0 
106 1 1 0.00827944 -0.0041386 0.0166766 0 0 0 0.00424001 -3.73536e-05 0.00165399 0.00020019 0.00328262 0.000133102 -0.857384 -0.45125 0.676017 0.004 300 0 
651 1 1 0.0260131 -0.000249732 0.0173873 0 0 0 0.0059255 -0.00691546 0.000980705 0.00309921 0.00207638 0.00302572 -1.20467 -0.214353 0.495486 0.004 300 0 
133 1 1 0.0390164 -0.00377762 0.0166289 0 0 0 0.00357991 -0.0021707 -0.00410084 -0.00116495 -0.00170349 0.00501402 1.04434 1.41435 1.83119 0.004 300 0 
164 1 1 0.046026 -0.00184086 0.0198623 0 0 0 -0.000426603 0.00874304 -0.00201583 0.00124938 -0.00178896 0.0018225 -0.54289 -1.37091 0.483066 0.004 300 0 
127 1 1 -0.00218864 -0.0460634 0.023769 0 0 0 0.00317827 -0.000579228 -0.0026793 -0.00278183 0.00336212 0.00696558 -1.12999 0.158345 -1.00672 0.004 300 0 
126 1 1 -0.0154254 -0.0434081 0.0208658 0 0 0 0.000924638 0.000611036 0.000289013 0.000859837 0.000281817 -0.000167946 -0.215627 -0.236423 0.0715227 0.004 300 0 
143 1 1 0.00406065 -0.0412748 0.0229324 0 0 0 -0.00209843 0.00181677 -0.00110508 -0.00275198 -9.5763e-05 0.00708394 -1.09141 -0.801355 0.880859 0.004 300 0 