ITEM: TIMESTEP
30400
ITEM: NUMBER OF ATOMS
890
ITEM: BOX BOUNDS mm mm mm
-0.05 0.05
-0.05 0.05
0 0.15
ITEM: ATOMS id type type x y z ix iy iz vx vy vz fx fy fz omegax omegay omegaz radius f_Temp[0] f_heatFlux[0] 
59 1 1 -0.000715549 -0.0460982 0.00395599 0 0 0 3.77912e-07 -4.76006e-07 1.6102e-07 1.19467e-07 -1.07357e-06 -1.90815e-06 4.0642e-05 0.000177674 -9.15159e-05 0.004 532.307 1.1902 
170 1 1 -0.0173498 -0.0426414 0.00397302 0 0 0 3.41273e-07 -2.29191e-07 3.60005e-07 -4.86552e-07 -8.09536e-07 -1.31704e-06 -2.1073e-05 1.30402e-05 -7.54158e-06 0.004 372.283 5.80222 
15 1 1 -0.00975016 -0.0449637 0.00393398 0 0 0 5.8666e-07 1.92145e-07 1.82916e-07 -2.23721e-07 -1.576e-06 -1.55111e-06 -5.13619e-05 0.000121529 8.28323e-05 0.004 411.522 5.59092 
116 1 1 0.00648761 -0.0428197 0.00395871 0 0 0 3.93774e-07 -1.38394e-06 3.97917e-07 4.98985e-07 -2.93127e-06 -2.64279e-06 0.000534424 2.82265e-05 1.2731e-05 0.004 629.071 -3.02156 
158 1 1 0.0143627 -0.0437625 0.00389982 0 0 0 2.30968e-07 -5.66408e-07 8.67674e-08 7.57118e-07 -1.84504e-06 -2.23428e-06 2.73443e-05 1.9037e-05 3.0492e-05 0.004 691.302 -5.21511 
98 1 1 0.0216779 -0.0406527 0.00394262 0 0 0 1.83445e-07 -4.84227e-07 4.42747e-08 -1.32678e-07 -8.83102e-07 -1.24025e-06 4.42083e-05 -1.63681e-05 -1.01563e-05 0.004 737.533 -5.3462 
169 1 1 -0.0244315 -0.0390659 0.00391428 0 0 0 1.72034e-07 -4.19697e-07 5.99138e-07 -8.18296e-07 -1.37955e-06 -2.22078e-06 0.000155781 1.5622e-05 -3.21715e-05 0.004 337.031 4.54844 
89 1 1 -0.011812 -0.0369235 0.00395465 0 0 0 3.09573e-07 -1.01317e-06 1.11063e-06 -3.54038e-07 -2.09252e-06 -3.4049e-06 0.000217441 -0.000154504 3.36988e-05 0.004 407.185 4.76162 
152 1 1 -0.00418342 -0.0390222 0.00390528 0 0 0 4.21244e-07 -8.41629e-07 1.14345e-06 -3.44293e-07 -2.56899e-06 -5.3519e-06 0.000198483 0.000100341 -4.54875e-05 0.004 487.557 2.62967 
23 1 1 0.0153483 -0.035882 0.00391133 0 0 0 7.3823e-08 -1.53273e-06 7.88032e-07 -1.48138e-07 -2.49346e-06 -4.46252e-06 0.000309277 5.01176e-05 0.000139348 0.004 704.44 -5.42487 
118 1 1 -0.0307533 -0.0342397 0.00392726 0 0 0 -1.9759e-08 -2.42262e-07 7.7336e-07 -5.01358e-07 -1.10632e-06 -1.61941e-06 3.1753e-05 3.02247e-06 5.91587e-05 0.004 315.254 2.90517 
30 1 1 -0.0188787 -0.0333717 0.00395278 0 0 0 3.92706e-07 -1.35145e-06 1.37275e-06 -1.2045e-06 -2.14203e-06 -4.18241e-06 0.000331062 8.52235e-05 -5.43412e-05 0.004 351.705 4.69277 
215 1 1 -0.00603631 -0.0313237 0.00390666 0 0 0 -1.79844e-07 -5.81243e-07 2.44189e-06 4.4349e-08 -3.79452e-06 -6.16794e-06 9.48474e-05 4.60218e-05 0.000105551 0.004 458.794 3.64208 
74 1 1 0.0018414 -0.0338192 0.00390685 0 0 0 -1.07403e-08 -1.75151e-06 1.89641e-06 2.5623e-07 -3.14514e-06 -6.34498e-06 0.000330033 8.21609e-05 0.00019462 0.004 558.98 -0.191723 
24 1 1 0.00917856 -0.0308341 0.00392039 0 0 0 4.71269e-07 -2.18645e-06 2.02979e-06 -6.8316e-07 -3.25198e-06 -6.43765e-06 0.000311252 0.000145905 -0.000138771 0.004 656.554 -4.03435 
198 1 1 0.0259423 -0.0339523 0.00395553 0 0 0 8.60562e-07 -1.18943e-06 7.18905e-07 -4.02113e-07 -7.88952e-07 -2.61818e-06 0.000431296 0.000311463 -6.35027e-05 0.004 767.184 -4.28095 
161 1 1 0.0335301 -0.0316074 0.00391359 0 0 0 8.49641e-08 -4.81311e-07 5.46243e-07 8.1549e-08 -1.43529e-06 -1.50406e-06 0.000112112 1.036e-05 0.000108866 0.004 784.203 -2.84998 
8 1 1 -0.0322699 -0.0264156 0.00398407 0 0 0 2.88775e-08 -9.11335e-07 8.57182e-07 -4.7554e-07 -1.09594e-06 -2.31761e-06 0.000148775 -0.00021694 -0.000251734 0.004 311.895 2.36807 
12 1 1 -0.0244143 -0.0276959 0.00386443 0 0 0 6.90194e-08 -1.70101e-06 2.48716e-06 -1.33579e-06 -2.22003e-06 -5.5765e-06 0.000261162 -0.000137235 0.000163213 0.004 329.204 3.88405 
188 1 1 -0.0131742 -0.0277762 0.00396592 0 0 0 -3.45243e-08 -2.05754e-06 2.47477e-06 -7.55198e-07 -1.79303e-06 -4.91343e-06 0.000477614 7.34897e-05 5.37876e-05 0.004 371.106 5.17277 
77 1 1 -0.000100217 -0.0260808 0.00389422 0 0 0 1.57472e-06 -3.00334e-06 4.23245e-06 -2.35715e-06 -3.55596e-06 -7.43586e-06 0.000745734 0.00023131 -0.000793379 0.004 539.065 0.557147 
113 1 1 0.0165643 -0.0280203 0.00388663 0 0 0 8.01118e-07 -2.58951e-06 1.76503e-06 -9.71996e-07 -1.92078e-06 -4.54976e-06 0.000247793 0.000159846 -0.000180152 0.004 720.585 -4.99572 
183 1 1 0.0384541 -0.0253742 0.00393849 0 0 0 1.33664e-07 -1.16662e-07 5.90133e-07 1.46933e-07 -1.06527e-06 -1.38812e-06 -2.09955e-05 3.92012e-05 -9.72357e-05 0.004 792.806 -1.68079 
162 1 1 -0.0396311 -0.023418 0.00390784 0 0 0 8.44905e-07 -1.63738e-07 9.40993e-07 -1.01354e-06 -6.96103e-07 -1.5317e-06 5.46695e-06 0.000181084 8.76039e-05 0.004 304.817 1.25708 
53 1 1 -0.027206 -0.0202486 0.00395171 0 0 0 1.0469e-06 -2.98761e-06 2.30134e-06 -2.13365e-06 -8.95232e-07 -4.26314e-06 0.000458311 0.00047779 -0.00035187 0.004 318.291 3.01146 
148 1 1 -0.0187584 -0.0220642 0.00393822 0 0 0 3.52454e-07 -2.55634e-06 4.6765e-06 -1.7994e-06 -2.85753e-06 -6.749e-06 0.000514333 0.000141223 -0.000216796 0.004 347.037 5.03957 
195 1 1 -0.00727817 -0.02155 0.00394572 0 0 0 -4.08562e-07 -5.85049e-06 3.29989e-06 -2.49738e-07 5.88046e-07 -6.85978e-06 0.000792691 -0.000301583 -0.000296316 0.004 434.91 5.24555 
179 1 1 0.0073663 -0.023103 0.00394279 0 0 0 1.96284e-06 -3.39186e-06 3.51e-06 -1.8155e-06 -3.21239e-06 -6.7981e-06 0.000466018 0.000242347 2.75674e-05 0.004 656.772 -4.37466 
95 1 1 0.0148506 -0.02031 0.00393217 0 0 0 1.46421e-06 -3.46247e-06 4.12892e-06 -9.79576e-07 -2.25702e-06 -7.17094e-06 0.000520519 0.000169709 -3.24122e-05 0.004 716.353 -5.02567 
76 1 1 0.0230028 -0.0233057 0.00397476 0 0 0 1.53344e-06 -2.05778e-06 1.64147e-06 -6.60376e-07 -2.38669e-06 -4.11377e-06 0.000358919 0.000100676 0.00017555 0.004 770.532 -3.87049 
100 1 1 0.0325586 -0.0200895 0.00388599 0 0 0 1.01181e-06 -5.55964e-07 1.83406e-06 3.50186e-07 -2.72046e-06 -4.04007e-06 8.98408e-05 0.00034281 0.000150299 0.004 788.578 -2.22221 
65 1 1 -0.0430742 -0.0162802 0.00393147 0 0 0 7.16461e-07 -4.08145e-07 1.19865e-06 -8.51082e-07 -1.08072e-07 -1.55861e-06 9.04668e-05 -7.56012e-05 -6.64976e-05 0.004 302.63 0.7879 
102 1 1 -0.0351583 -0.0155178 0.00394453 0 0 0 2.0266e-06 -3.52401e-06 2.36005e-06 -1.9634e-06 -1.00173e-06 -4.32418e-06 0.00081756 0.000249843 -0.000828307 0.004 306.631 1.51138 
213 1 1 -0.0132588 -0.0162738 0.00397369 0 0 0 1.27306e-06 -4.47365e-06 3.63654e-06 -2.90515e-06 -5.11421e-08 -5.03247e-06 4.03429e-05 0.000224111 -2.87715e-05 0.004 372.107 5.83723 
10 1 1 0.00114848 -0.0182523 0.0047501 0 0 0 1.63464e-06 -6.37243e-06 4.97022e-06 -1.9911e-06 -2.14613e-06 -9.30481e-06 -0.000939874 0.000411837 0.000588911 0.004 571.955 -1.03394 
5 1 1 0.00879791 -0.0152553 0.00390321 0 0 0 -1.25676e-08 -4.69882e-06 4.9252e-06 -6.62994e-07 -2.34348e-06 -7.74106e-06 0.000193118 -0.000248446 0.000322477 0.004 667.566 -4.32453 
96 1 1 0.0211693 -0.0155242 0.00395657 0 0 0 1.83473e-06 -3.28256e-06 2.92422e-06 2.20155e-08 -2.06185e-06 -6.13634e-06 0.000568727 0.000519653 2.47773e-05 0.004 764.036 -4.02012 
167 1 1 0.0421923 -0.0183683 0.00392113 0 0 0 -2.87588e-07 -1.19376e-07 4.5459e-07 2.4243e-07 -5.96956e-07 -8.55896e-07 -2.38021e-05 -5.79759e-05 0.00010412 0.004 797.424 -0.785313 
124 1 1 -0.0290109 -0.0104716 0.00394794 0 0 0 4.98527e-06 -5.49723e-06 1.57262e-06 -3.44906e-06 -6.09563e-08 -3.81049e-06 0.000621792 0.0013176 0.000348362 0.004 316.326 2.7009 
220 1 1 -0.0217759 -0.0144543 0.00398047 0 0 0 2.2532e-06 -5.70782e-06 1.49197e-06 -3.33344e-06 1.5679e-06 -3.48041e-06 0.00106151 0.00079338 -0.000257706 0.004 335.043 3.92007 
144 1 1 -0.00535515 -0.0138038 0.0038819 0 0 0 3.21974e-08 -7.04153e-06 6.29748e-06 -7.89212e-07 -9.58458e-07 -1.05392e-05 0.0011413 7.0687e-05 -0.00020763 0.004 490.601 2.36515 
26 1 1 0.00255574 -0.0104629 0.00390576 0 0 0 -5.89568e-07 -7.29681e-06 5.21303e-06 -5.66094e-07 -1.61807e-06 -7.85673e-06 0.00153335 -4.43386e-06 0.000133465 0.004 578.57 -1.24548 
194 1 1 0.0287352 -0.013103 0.00393085 0 0 0 8.35081e-07 -1.92046e-06 3.07496e-06 -2.04205e-07 -2.61861e-06 -5.01031e-06 0.000356784 -6.09615e-05 5.61412e-05 0.004 784.908 -2.60572 
37 1 1 0.0366701 -0.0122307 0.00393308 0 0 0 7.50586e-07 1.18085e-06 2.20966e-06 4.55479e-07 -2.63402e-06 -3.77742e-06 -0.000403988 0.000237517 0.00080517 0.004 795.518 -1.15267 
219 1 1 0.0447285 -0.0108715 0.00390888 0 0 0 -1.48157e-07 -1.46255e-07 -5.38174e-08 -2.80675e-07 -5.19898e-07 -4.95793e-07 -9.98631e-05 -3.59394e-05 -0.000123202 0.004 798.861 -0.42667 
636 1 1 -0.0451997 -0.00864275 0.00391772 0 0 0 1.30466e-06 -4.40493e-07 1.2704e-06 -1.71078e-06 -1.83936e-07 -1.41374e-06 7.3708e-05 0.000261602 -0.000114831 0.004 301.2 0.431042 
39 1 1 -0.0161466 -0.00885108 0.00388997 0 0 0 1.08968e-06 -7.02975e-06 5.42289e-06 -2.697e-06 7.73892e-07 -7.71199e-06 0.00080651 -0.000107666 0.000135283 0.004 374.683 4.51328 
171 1 1 -0.00395982 -0.00597826 0.00392054 0 0 0 -1.09724e-07 -7.01203e-06 7.53896e-06 -1.07416e-06 -1.28905e-06 -8.84163e-06 0.000487603 0.000185367 0.000232085 0.004 498.454 1.92397 
200 1 1 0.0146298 -0.00986518 0.00396384 0 0 0 3.35527e-07 -5.77344e-06 3.58084e-06 3.02848e-07 -1.28027e-06 -6.33698e-06 0.000563096 8.29212e-05 -0.000130539 0.004 724.396 -5.17714 
21 1 1 0.022252 -0.0076216 0.00394342 0 0 0 1.16516e-06 -4.20787e-06 4.46376e-06 7.77726e-07 -1.79441e-06 -6.43361e-06 0.000802551 0.000226812 0.000304547 0.004 767.094 -4.01295 
17 1 1 0.0298456 -0.00520715 0.00394879 0 0 0 8.69205e-07 -1.92524e-06 3.74209e-06 -1.01325e-07 -2.25096e-06 -4.588e-06 0.000272491 0.000106318 9.55254e-05 0.004 785.494 -2.67402 
477 1 1 -0.0445832 -0.000710813 0.00396287 0 0 0 1.83262e-06 -9.44124e-07 1.73683e-06 -2.60793e-06 -2.08832e-07 -1.54473e-06 0.000107442 0.000323406 -3.64383e-05 0.004 301.237 0.412139 
140 1 1 -0.0352672 -0.00371827 0.00387252 0 0 0 1.55879e-06 -4.46068e-06 2.53984e-06 -2.57294e-06 6.55617e-07 -4.09027e-06 0.00105403 0.000319348 -0.000743691 0.004 308.461 1.61563 
119 1 1 -0.0273891 -0.00269834 0.00396395 0 0 0 1.47619e-06 -5.85499e-06 3.06121e-06 -2.49257e-06 1.02882e-06 -4.23987e-06 0.000670259 0.000166502 0.000474289 0.004 323.129 3.02722 
207 1 1 -0.0194911 -0.00168728 0.0038952 0 0 0 3.42994e-07 -7.34614e-06 6.69329e-06 -1.60548e-06 7.37825e-07 -7.57734e-06 0.00118945 -0.000297546 -0.000348645 0.004 355.019 4.31406 
69 1 1 -0.0111572 -0.0026455 0.00393015 0 0 0 -7.50754e-08 -7.69279e-06 6.35496e-06 -8.38088e-07 3.35357e-08 -6.56124e-06 0.000868887 0.000182936 4.59686e-05 0.004 417.325 4.37779 
221 1 1 0.00874803 -0.00448986 0.00393208 0 0 0 -1.10693e-06 -7.64372e-06 5.16232e-06 9.07448e-07 -1.34844e-06 -5.67165e-06 0.00195161 -0.000361518 9.09386e-05 0.004 681.13 -4.88713 
457 1 1 0.0163505 -0.00208059 0.00395934 0 0 0 6.95612e-07 -6.06753e-06 4.51827e-06 3.74118e-07 -3.16336e-07 -4.9723e-06 0.000294365 0.000460045 -0.000138536 0.004 737.789 -5.33568 
155 1 1 0.0378912 -0.00224684 0.00393696 0 0 0 -4.00076e-07 1.54319e-06 2.6292e-06 2.3604e-06 -2.54253e-06 -4.17541e-06 -0.000366278 -0.000255587 0.000487636 0.004 795.714 -1.06286 
665 1 1 0.0459183 -0.00307627 0.00394261 0 0 0 -4.98604e-07 -7.64154e-07 6.42489e-07 7.31595e-07 -1.46298e-07 -7.3106e-07 0.000388872 -6.45519e-05 0.000253924 0.004 798.75 -0.442624 
120 1 1 0.00918486 -0.0371091 0.00876943 0 0 0 9.58301e-07 -3.14707e-06 2.22542e-06 -5.61151e-07 -4.60755e-06 -8.22065e-06 3.26797e-05 0.000198412 -4.41591e-05 0.004 660.575 -4.38712 
9 1 1 -0.0247147 -0.033359 0.00937629 0 0 0 6.91227e-07 -1.84521e-06 2.2085e-06 -2.66621e-06 -2.89896e-06 -5.97923e-06 0.00014533 7.72551e-05 -0.000147758 0.004 330.169 4.12042 
101 1 1 -0.0188614 -0.0277191 0.00955157 0 0 0 2.91566e-08 -4.71284e-06 5.11821e-06 -2.35234e-06 -3.72771e-06 -9.63182e-06 0.000770285 -6.51632e-05 0.000102152 0.004 346.906 4.76815 
48 1 1 0.0221998 -0.0293138 0.00920038 0 0 0 8.81086e-07 -3.40103e-06 2.63191e-06 -1.38534e-06 -3.43422e-06 -6.33775e-06 4.5871e-05 -0.000202883 0.000371126 0.004 754.933 -4.35394 
75 1 1 0.02936 -0.0261745 0.00787427 0 0 0 1.1709e-06 -2.10018e-06 2.36461e-06 -1.05834e-06 -2.83443e-06 -5.21331e-06 0.000361967 7.48175e-05 -0.000199709 0.004 781.002 -2.97253 
46 1 1 -0.0327912 -0.0205809 0.00958358 0 0 0 1.50199e-06 -2.64766e-06 4.50645e-06 -4.2762e-06 -3.25309e-06 -9.56647e-06 -0.000674732 -0.000117713 0.000237713 0.004 311.88 2.23868 
33 1 1 -0.013034 -0.0220249 0.00949579 0 0 0 3.69921e-07 -7.10155e-06 6.6481e-06 -1.73842e-06 -4.19616e-07 -1.04361e-05 0.000552003 -0.000412703 -0.000429846 0.004 377.813 5.08679 
11 1 1 0.02689 -0.0187447 0.00924471 0 0 0 1.91601e-06 -3.49538e-06 4.86795e-06 -7.17338e-07 -3.77448e-06 -9.23194e-06 0.000287159 0.000314654 0.000295411 0.004 777.505 -3.23433 
71 1 1 -0.0372751 -0.00954695 0.00876629 0 0 0 2.44495e-06 -3.72084e-06 4.15881e-06 -2.27812e-06 -4.95984e-07 -5.65929e-06 -0.00116179 -0.000175796 0.000695933 0.004 304.7 1.13861 
62 1 1 -0.0228082 -0.00771372 0.00814046 0 0 0 1.52682e-06 -9.66561e-06 5.28625e-06 -3.04408e-06 1.63702e-06 -8.21554e-06 0.000739464 -0.00161117 -4.85949e-07 0.004 336.463 3.90634 
19 1 1 -0.00970669 -0.0090563 0.00849085 0 0 0 1.1918e-06 -1.18873e-05 1.15457e-05 -3.34561e-06 -1.73192e-06 -1.4988e-05 0.000380068 -6.11825e-05 -4.03041e-05 0.004 450.303 3.23092 
187 1 1 0.00796707 -0.00988199 0.0097576 0 0 0 -4.26373e-06 -7.68558e-06 6.01024e-06 3.13881e-06 -7.13908e-06 -8.81456e-06 -0.00150166 -0.000861961 0.00031601 0.004 669.952 -5.84898 
157 1 1 0.0395816 -0.00751947 0.00963118 0 0 0 -9.1981e-07 9.39157e-07 3.51171e-06 1.70363e-06 -2.78935e-06 -6.62946e-06 0.000867552 -0.000262697 7.74865e-05 0.004 797.592 -0.729359 
18 1 1 0.00229113 -0.00404899 0.00852658 0 0 0 1.02249e-07 -1.47914e-05 1.20366e-05 -1.37878e-06 -2.01867e-06 -1.3512e-05 0.000752464 0.00146785 0.000500414 0.004 575.663 -1.09185 
185 1 1 -0.00531147 -0.045735 0.0104439 0 0 0 5.58996e-07 -5.62419e-07 7.38627e-07 -8.54063e-07 -2.69632e-06 -3.62743e-06 0.000252795 -0.000208881 -0.000188531 0.004 477.048 3.05383 
83 1 1 0.00256736 -0.0459473 0.0112662 0 0 0 6.89576e-07 -1.46574e-06 5.35689e-07 -3.35821e-07 -2.51377e-06 -5.6713e-06 6.78446e-05 0.000218255 -5.18356e-05 0.004 570.677 -1.41597 
58 1 1 -0.0218568 -0.0405821 0.0112769 0 0 0 1.97463e-07 -1.8914e-06 1.07574e-06 -2.2224e-06 -1.02433e-06 -3.17012e-06 0.000288054 -6.00521e-05 -0.000281527 0.004 341.262 4.83093 
105 1 1 -0.013586 -0.043966 0.0108788 0 0 0 1.03967e-06 -1.2033e-06 1.02414e-06 -7.43976e-08 -6.10074e-07 -2.89576e-06 0.000349725 2.91364e-05 -0.00028944 0.004 380.241 6.73958 
223 1 1 0.0103957 -0.0448674 0.0106707 0 0 0 6.15269e-07 -1.33607e-06 1.93469e-07 1.90918e-07 -2.63305e-06 -5.63521e-06 0.000216824 2.17754e-05 -6.42236e-05 0.004 652.169 -4.36871 
217 1 1 0.0179432 -0.0424253 0.0108281 0 0 0 1.92964e-07 -1.73717e-06 8.04874e-07 4.1673e-07 -2.38102e-06 -2.66242e-06 0.000449881 8.93544e-05 0.000126667 0.004 711.713 -5.43698 
6 1 1 -0.0162615 -0.0350311 0.0113115 0 0 0 3.99622e-07 -3.41299e-06 3.32482e-06 -1.34797e-06 -3.86705e-06 -1.01329e-05 -5.96014e-05 -0.000470869 0.000128644 0.004 368.872 5.18556 
151 1 1 -0.00801308 -0.0382602 0.0108115 0 0 0 4.63111e-07 -1.69814e-06 2.60163e-06 1.43746e-07 -4.89027e-06 -8.94422e-06 2.70083e-05 5.58412e-05 0.000353277 0.004 437.393 4.50293 
2 1 1 0.000443927 -0.038308 0.0102711 0 0 0 1.13441e-06 -3.37348e-06 1.69195e-06 -3.97334e-07 -5.05587e-06 -9.60152e-06 0.00042733 -2.33911e-05 0.00013938 0.004 548.374 0.140001 
117 1 1 0.0249196 -0.0387267 0.0109177 0 0 0 -2.05629e-07 -1.35634e-06 7.29574e-07 9.16193e-07 -2.38097e-06 -1.83612e-06 0.000278752 2.65191e-05 0.000168724 0.004 755.366 -4.72199 
13 1 1 -0.0323455 -0.0327547 0.0115371 0 0 0 4.54075e-07 -7.0773e-07 2.22728e-06 -1.99819e-06 -2.42475e-06 -4.2015e-06 0.000156498 4.52564e-05 1.49911e-05 0.004 315.215 2.83765 
193 1 1 -0.00982576 -0.0305005 0.0107687 0 0 0 1.03456e-06 -4.67645e-06 7.218e-06 -2.70623e-06 -5.28806e-06 -1.63617e-05 0.00155503 0.000359742 -0.000598652 0.004 427.197 4.60993 
47 1 1 -0.00133755 -0.0305433 0.0103849 0 0 0 1.94362e-06 -4.46837e-06 6.84682e-06 -3.28554e-06 -6.4945e-06 -1.42254e-05 0.000125308 0.000815124 -0.000272364 0.004 532.076 0.972049 
153 1 1 0.00656464 -0.0300231 0.0113663 0 0 0 1.9835e-06 -6.79158e-06 5.87367e-06 -3.31162e-06 -6.63774e-06 -1.48258e-05 0.000553849 0.00026736 0.000252893 0.004 628.121 -3.17618 
41 1 1 0.0148076 -0.0317914 0.0106541 0 0 0 2.00536e-06 -4.94313e-06 3.89618e-06 -2.50668e-06 -5.66463e-06 -1.0687e-05 0.000564153 0.000524911 -0.000253955 0.004 709.734 -5.3286 
163 1 1 0.0311565 -0.0339183 0.0111115 0 0 0 -4.84598e-07 -9.90541e-07 1.53718e-06 8.28765e-07 -2.88529e-06 -3.49507e-06 0.000181863 7.81427e-05 3.95021e-05 0.004 780.501 -3.0873 
214 1 1 -0.0375015 -0.0268265 0.010714 0 0 0 6.99365e-07 -9.39788e-07 2.71164e-06 -1.86732e-06 -2.31218e-06 -4.88004e-06 0.000272336 -0.000644831 -0.00019828 0.004 308.381 1.83784 
210 1 1 0.0364694 -0.0280971 0.0111135 0 0 0 -1.91741e-07 -7.35123e-07 1.70492e-06 1.95618e-07 -1.68796e-06 -3.19221e-06 0.000242063 0.000179169 6.17687e-06 0.004 791.92 -1.74807 
108 1 1 -0.0260915 -0.0246403 0.0109305 0 0 0 1.64293e-07 -4.77205e-06 7.28416e-06 -3.30055e-06 -4.94178e-06 -1.16305e-05 0.000650289 -9.71898e-05 -0.000949956 0.004 325.099 3.45653 
40 1 1 -0.00551109 -0.0238696 0.0113287 0 0 0 8.61307e-07 -8.11479e-06 9.60643e-06 -2.78585e-06 -4.43327e-06 -1.63764e-05 -0.000566985 0.00041159 0.000483993 0.004 473.876 3.0369 
55 1 1 0.00236211 -0.0232851 0.010825 0 0 0 1.44939e-06 -9.6647e-06 1.00486e-05 -2.41692e-06 -5.68954e-06 -1.71112e-05 0.000800956 -0.00097028 -0.000456689 0.004 584.217 -1.3124 
91 1 1 0.0120918 -0.0243836 0.0101857 0 0 0 2.22597e-06 -5.71502e-06 6.54544e-06 -2.91033e-06 -7.21438e-06 -1.38631e-05 0.000320166 -0.000371278 0.000117475 0.004 690.572 -5.1394 
112 1 1 0.0192794 -0.020536 0.0105074 0 0 0 1.51293e-06 -6.846e-06 7.98643e-06 -1.27556e-06 -5.66028e-06 -1.55931e-05 -0.000180999 8.24444e-05 0.00047648 0.004 742.435 -5.07547 
178 1 1 0.0318658 -0.0225253 0.0144789 0 0 0 -1.21261e-07 -3.74006e-06 4.48288e-06 2.30987e-07 -3.46401e-06 -8.47471e-06 -2.2535e-05 -0.000296534 -3.66207e-06 0.004 789.235 -2.11341 
131 1 1 0.0407765 -0.0214682 0.0110513 0 0 0 2.51103e-07 -5.9728e-07 1.44918e-06 3.61063e-07 -1.25017e-06 -2.22756e-06 8.51977e-05 0.000286392 5.33901e-05 0.004 796.114 -1.04728 
160 1 1 -0.041472 -0.0199398 0.0108131 0 0 0 9.02649e-07 -8.62693e-07 2.11529e-06 -1.6521e-06 -8.33517e-07 -3.00318e-06 9.11814e-05 -9.82857e-06 0.000108013 0.004 303.365 0.94971 
43 1 1 -0.0361086 -0.0151005 0.0142599 0 0 0 1.95533e-06 -3.11824e-06 7.91025e-06 -4.5401e-06 -3.80857e-06 -1.14287e-05 0.000869705 -0.0004776 -0.000721415 0.004 307.301 1.50707 
4 1 1 -0.0270342 -0.0151183 0.0100741 0 0 0 4.04895e-06 -6.39976e-06 5.66768e-06 -5.13295e-06 -3.54588e-06 -1.12147e-05 -0.000464274 -0.00158909 -0.00150212 0.004 321.613 3.16799 
104 1 1 -0.0203009 -0.0192301 0.0111978 0 0 0 9.49524e-07 -9.14354e-06 1.06805e-05 -4.61147e-06 -4.27795e-06 -1.51906e-05 0.000725193 0.000248356 0.000457116 0.004 344.687 4.41901 
20 1 1 -0.00745476 -0.0162217 0.0110957 0 0 0 5.06613e-08 -1.20589e-05 1.13391e-05 -2.41209e-06 -3.63743e-06 -1.90532e-05 0.000541033 0.000593144 -0.000333309 0.004 466.546 3.08988 
45 1 1 0.000825106 -0.0164512 0.0146049 0 0 0 1.51154e-06 -1.79705e-05 1.64909e-05 -4.46122e-06 -4.39776e-06 -2.48737e-05 0.00101703 0.000351585 0.000112084 0.004 560.594 -0.359717 
159 1 1 0.00795162 -0.0177075 0.0113472 0 0 0 7.51854e-07 -9.69548e-06 1.20938e-05 -2.75383e-06 -7.22735e-06 -2.00865e-05 0.000952133 0.000437384 0.000879008 0.004 659.17 -4.11137 
136 1 1 0.0347931 -0.0163371 0.0104656 0 0 0 1.28831e-06 -2.15002e-06 4.63076e-06 -8.87871e-09 -3.64527e-06 -6.79584e-06 0.000666487 -0.000255524 0.000141628 0.004 792.599 -1.64103 
177 1 1 -0.0443274 -0.0125289 0.0108104 0 0 0 1.28051e-06 -1.39199e-06 2.39118e-06 -1.54201e-06 -3.43364e-07 -2.97063e-06 0.000110167 -0.000281154 -0.0003973 0.004 302.139 0.656135 
139 1 1 -0.0168209 -0.0121092 0.011044 0 0 0 1.05501e-06 -1.24644e-05 1.13379e-05 -4.45862e-06 -3.34933e-06 -1.81499e-05 -0.000118117 0.000445526 -0.000784263 0.004 366.43 4.53495 
211 1 1 -0.00209534 -0.0104147 0.0103076 0 0 0 1.81749e-06 -1.56299e-05 1.40064e-05 -4.2979e-06 -1.70319e-06 -1.85604e-05 0.000515744 0.000213194 -0.000517405 0.004 524.129 0.946379 
54 1 1 0.0149155 -0.0138957 0.010831 0 0 0 1.42479e-06 -9.01164e-06 7.7567e-06 -2.04425e-06 -5.77224e-06 -1.50133e-05 -0.000629197 0.000945247 -0.000723509 0.004 724.816 -5.40695 
84 1 1 0.023272 -0.0118009 0.0106603 0 0 0 2.40687e-06 -7.35858e-06 7.30796e-06 -8.17691e-08 -3.7734e-06 -1.31227e-05 0.000257171 -0.000224945 0.000259988 0.004 770.131 -3.87007 
180 1 1 0.0438204 -0.0140997 0.0110465 0 0 0 -4.41208e-07 4.59654e-07 6.89953e-07 -1.86831e-07 -1.5572e-06 -1.5687e-06 -0.000104515 7.26928e-05 4.33719e-05 0.004 798.431 -0.53759 
103 1 1 0.0174441 -0.00636556 0.0105708 0 0 0 2.31316e-06 -1.16937e-05 7.84421e-06 2.00146e-07 -2.89686e-06 -1.29975e-05 0.000749053 0.000252026 0.000556961 0.004 742.176 -5.08214 
156 1 1 0.0308891 -0.00946107 0.01063 0 0 0 2.57035e-06 -4.44731e-06 6.56613e-06 8.18604e-09 -4.48736e-06 -9.06146e-06 7.17113e-05 0.000594915 -9.61849e-05 0.004 786.423 -2.45688 
197 1 1 -0.045783 -0.00471119 0.0107571 0 0 0 2.38444e-06 -1.00605e-06 3.02003e-06 -2.90973e-06 -2.57397e-07 -3.10066e-06 0.000130747 -0.000266705 -0.000134826 0.004 301.304 0.445144 
87 1 1 -0.0386059 -0.0038115 0.0141382 0 0 0 3.15514e-06 -5.84316e-06 7.14035e-06 -6.27932e-06 -3.18263e-06 -7.67583e-06 0.00137886 0.000672043 -0.000697634 0.004 303.274 0.860708 
130 1 1 -0.0313597 -0.0038738 0.0107776 0 0 0 2.29068e-06 -9.27329e-06 5.69251e-06 -3.04938e-06 -2.04607e-06 -9.46058e-06 -0.000694483 -0.000209291 0.000319149 0.004 310.95 1.9663 
604 1 1 -0.0224595 -0.000300833 0.0110796 0 0 0 1.05306e-07 -1.52314e-05 1.38623e-05 -4.23913e-06 -7.9001e-07 -1.43111e-05 0.00102664 -0.000127527 -0.000415653 0.004 344.732 3.86552 
146 1 1 -0.0155078 -0.00400722 0.0103914 0 0 0 1.11904e-07 -1.52519e-05 1.22341e-05 -4.1553e-06 -1.55355e-06 -1.44007e-05 4.6422e-05 0.000106494 0.000231572 0.004 389.625 4.26593 
57 1 1 -0.00517519 -0.00310602 0.0111956 0 0 0 1.82745e-06 -1.94161e-05 1.87603e-05 -3.24035e-06 -2.807e-07 -1.89571e-05 0.00242113 -0.000222029 -0.000254849 0.004 497.6 1.98338 
493 1 1 0.0116956 -0.000874992 0.0103667 0 0 0 -1.97392e-07 -1.60874e-05 1.12224e-05 1.21113e-06 2.96048e-07 -1.28206e-05 -0.000517328 0.000644024 3.08294e-05 0.004 701.258 -5.19286 
31 1 1 0.0250484 -0.00405411 0.0104602 0 0 0 1.27333e-06 -7.20755e-06 8.03139e-06 1.33433e-06 -4.09924e-06 -1.10461e-05 -1.03142e-05 3.63349e-07 0.000390058 0.004 771.186 -3.71425 
588 1 1 0.0325998 -0.00174519 0.0105431 0 0 0 1.30961e-06 -3.88554e-06 7.06802e-06 1.07975e-06 -4.79088e-06 -7.42907e-06 0.000583386 0.000217209 0.000470135 0.004 786.436 -2.36786 
63 1 1 0.045924 -0.00327878 0.0119253 0 0 0 2.55707e-07 8.92791e-07 1.46839e-06 8.65514e-07 -2.19699e-06 -2.86573e-06 -0.00144983 0.000387196 -0.000323507 0.004 798.344 -0.530916 
107 1 1 -0.00850633 -0.045273 0.0176771 0 0 0 -3.97127e-07 -1.32194e-06 5.46431e-07 -1.24603e-06 -3.09e-06 -5.75888e-06 0.000130015 8.50898e-05 -0.000143237 0.004 457.765 3.62678 
222 1 1 -0.00141959 -0.04181 0.017113 0 0 0 1.27763e-07 -4.314e-06 6.75668e-07 -1.06719e-06 -6.46797e-06 -1.17659e-05 -0.000276174 -0.00024216 -0.000267667 0.004 537.332 0.651898 
142 1 1 0.00615865 -0.0401387 0.0154213 0 0 0 1.171e-06 -4.67011e-06 2.18559e-06 -1.29585e-06 -6.5756e-06 -1.18745e-05 0.000674192 -0.000106796 0.000145109 0.004 615.115 -2.7137 
172 1 1 0.0116014 -0.0446445 0.0189548 0 0 0 7.78024e-08 -3.75372e-06 1.58871e-06 -9.14042e-07 -4.09529e-06 -7.28148e-06 0.000467564 -0.000823426 0.00010137 0.004 665.063 -4.76498 
109 1 1 0.0204197 -0.0412796 0.0183142 0 0 0 6.64778e-07 -3.67521e-06 1.47215e-06 -4.5431e-07 -9.40726e-07 -3.62292e-06 8.25225e-05 0.000129867 -5.75686e-05 0.004 742.008 -5.54753 
150 1 1 -0.0273271 -0.0370831 0.0158763 0 0 0 1.93316e-07 -1.57421e-06 1.95225e-06 -1.98292e-06 -1.52738e-06 -4.22117e-06 0.000136415 -9.08651e-05 -0.000319805 0.004 326.886 3.84572 
38 1 1 -0.0197787 -0.0373719 0.0182824 0 0 0 -9.21745e-07 -5.07797e-06 3.04173e-06 -8.57292e-07 -2.51115e-06 -1.04123e-05 0.000452675 -0.000389672 9.38394e-05 0.004 355.122 5.00129 
199 1 1 -0.0118545 -0.0370265 0.0176501 0 0 0 -7.14926e-07 -3.99483e-06 5.46445e-06 -1.06881e-06 -5.61668e-06 -1.46783e-05 0.000517287 -0.000184754 0.000223901 0.004 394.012 5.30991 
93 1 1 0.0137643 -0.0377759 0.0156808 0 0 0 1.74546e-06 -5.16786e-06 4.12407e-06 -2.33258e-06 -5.28741e-06 -1.04356e-05 0.000234237 0.000414619 -0.000192365 0.004 691.747 -5.20754 
64 1 1 0.0280176 -0.0365092 0.0179286 0 0 0 -2.53812e-06 -2.41599e-06 2.02967e-06 3.30257e-06 -8.33097e-07 -3.88089e-06 0.00026064 -0.000371641 0.000524551 0.004 777.855 -3.65732 
22 1 1 -0.0327402 -0.032422 0.0194568 0 0 0 -8.33577e-07 -2.65513e-06 3.59639e-06 -1.50513e-06 -2.19503e-06 -6.10338e-06 0.000657081 -0.000422373 -0.000195302 0.004 313.931 2.59625 
174 1 1 -0.0224318 -0.0302105 0.0162618 0 0 0 -1.42242e-06 -6.81773e-06 6.22445e-06 -1.76088e-06 -3.87138e-06 -1.23844e-05 0.00107932 -0.00064978 0.000206484 0.004 341.86 4.58479 
32 1 1 -0.00428308 -0.0343966 0.0166776 0 0 0 1.22213e-06 -6.98259e-06 7.70566e-06 -2.10898e-06 -6.76085e-06 -1.74488e-05 0.00191034 0.000145462 -0.000303387 0.004 497.638 2.40603 
128 1 1 0.00347463 -0.0331319 0.0179961 0 0 0 1.67355e-06 -9.57756e-06 7.71322e-06 -4.09975e-06 -7.49012e-06 -2.08173e-05 0.000431599 7.56728e-05 0.00023671 0.004 581.507 -1.29574 
88 1 1 0.0113687 -0.0304833 0.0177101 0 0 0 3.86794e-06 -9.17085e-06 8.16609e-06 -4.93819e-06 -8.07502e-06 -1.90618e-05 0.000261975 -0.000171555 -0.000236679 0.004 686.509 -4.92377 
137 1 1 0.0208047 -0.0338185 0.0156334 0 0 0 2.3417e-06 -4.79481e-06 3.88467e-06 -4.36498e-06 -4.7018e-06 -9.9932e-06 0.000568713 0.000812273 -0.000364202 0.004 755.718 -5.23075 
154 1 1 0.033982 -0.0311387 0.0180551 0 0 0 -2.26766e-07 -2.04647e-06 1.97919e-06 -3.14105e-07 -1.35478e-06 -3.96469e-06 0.000254189 0.000217878 0.000416943 0.004 789.871 -1.99214 
52 1 1 -0.0319909 -0.0252343 0.0161626 0 0 0 -6.64185e-07 -2.69406e-06 7.32383e-06 -2.35501e-06 -5.57819e-06 -1.26914e-05 0.00013915 -0.000357347 -0.000210729 0.004 313.676 2.38086 
80 1 1 -0.00960092 -0.0265065 0.0175807 0 0 0 8.14457e-07 -1.31781e-05 1.49165e-05 -5.11275e-06 -4.99749e-06 -2.51106e-05 0.00121245 -0.000197495 0.000606678 0.004 430.323 4.29182 
125 1 1 -0.00117357 -0.0267 0.0173744 0 0 0 2.20071e-07 -1.4008e-05 1.4009e-05 -4.77802e-06 -7.5607e-06 -2.40674e-05 0.00312152 -0.00168738 0.000475822 0.004 532.028 1.08605 
72 1 1 0.0179273 -0.0264315 0.0156372 0 0 0 2.61589e-06 -7.56647e-06 9.73798e-06 -4.45835e-06 -7.69801e-06 -2.0637e-05 0.000651496 -0.000398531 0.000526346 0.004 736.406 -5.45194 
34 1 1 0.0269647 -0.0287251 0.0154183 0 0 0 -7.16819e-07 -4.27464e-06 4.33576e-06 1.42199e-07 -4.62086e-06 -9.29045e-06 0.000352017 -5.78116e-05 1.5485e-05 0.004 778.247 -3.10735 
218 1 1 -0.0395968 -0.0234663 0.0176916 0 0 0 -1.08001e-07 -1.30549e-06 3.36467e-06 -1.47937e-06 -2.78929e-06 -6.07424e-06 0.000132761 -0.000481438 -3.3604e-05 0.004 304.775 1.1764 
70 1 1 -0.0247175 -0.0230257 0.0185787 0 0 0 -1.33804e-06 -9.19045e-06 1.29319e-05 -3.28221e-06 -5.29712e-06 -1.96802e-05 0.000833988 -0.000438907 -0.000614058 0.004 331.076 3.5618 
132 1 1 -0.0171323 -0.0242634 0.0164746 0 0 0 -7.03179e-07 -1.09846e-05 1.31664e-05 -3.25753e-06 -3.37814e-06 -2.02078e-05 0.000741405 -0.000594475 -0.000552121 0.004 363.733 4.70372 
196 1 1 0.00716653 -0.0237889 0.0170604 0 0 0 1.3898e-06 -1.58423e-05 1.6329e-05 -2.41447e-06 -8.61716e-06 -2.70764e-05 0.00221424 0.000936959 0.00186857 0.004 652.855 -3.73112 
362 1 1 0.0243874 -0.0214292 0.0170619 0 0 0 2.09354e-06 -7.64375e-06 9.13015e-06 -2.35219e-06 -6.40596e-06 -1.9342e-05 0.000555572 0.00154858 0.000138556 0.004 777.811 -3.23805 
49 1 1 0.0387627 -0.0248027 0.0179815 0 0 0 1.96644e-07 -1.04585e-06 1.85083e-06 -1.03339e-06 -8.6982e-07 -3.48448e-06 -4.80951e-05 1.47479e-05 -0.00020044 0.004 795.177 -1.23227 
173 1 1 -0.0431191 -0.0163148 0.0177079 0 0 0 -9.06961e-09 -1.7491e-06 3.6563e-06 -1.34614e-06 -9.82022e-07 -5.14621e-06 0.000181768 -0.000658676 -0.000149514 0.004 303.541 0.901875 
50 1 1 -0.0295064 -0.0167658 0.0182813 0 0 0 -1.05624e-07 -8.38855e-06 1.31064e-05 -4.57135e-06 -9.04627e-06 -2.08395e-05 -0.000521138 -2.23824e-05 -0.000302834 0.004 316.838 2.4493 
202 1 1 -0.0134618 -0.0172166 0.0161109 0 0 0 2.08521e-07 -1.34113e-05 1.69977e-05 -5.18624e-06 -6.11875e-06 -2.7047e-05 -0.000146636 1.50657e-06 7.81163e-05 0.004 398.234 4.51097 
86 1 1 -0.0052486 -0.0199156 0.018376 0 0 0 6.1941e-07 -1.78191e-05 1.95983e-05 -5.07342e-06 -5.43483e-06 -2.98667e-05 -0.000676454 -5.74118e-05 -0.000421834 0.004 490.747 2.62256 
129 1 1 0.0138597 -0.0196294 0.0162862 0 0 0 1.21912e-06 -9.77222e-06 1.36684e-05 -2.41635e-06 -8.40488e-06 -2.35044e-05 0.000720145 5.69784e-05 -0.000315725 0.004 712.464 -4.92414 
82 1 1 0.0291401 -0.0151358 0.0159326 0 0 0 2.52911e-06 -6.64886e-06 8.33582e-06 -1.91917e-06 -6.20616e-06 -1.30802e-05 0.000930574 0.000315122 -0.000319452 0.004 786.686 -2.40792 
1 1 1 0.0424683 -0.0178049 0.0178803 0 0 0 3.38749e-07 -3.94298e-07 1.2426e-06 -7.31044e-07 -1.29084e-06 -1.71765e-06 9.62925e-05 0.000139847 0.000246928 0.004 797.309 -0.791668 
168 1 1 -0.0224798 -0.0136303 0.0164171 0 0 0 -7.92287e-08 -1.35141e-05 1.55011e-05 -5.13562e-06 -5.51291e-06 -2.15161e-05 0.000660003 -0.000834762 -0.000489358 0.004 340.299 3.95358 
121 1 1 -0.0051489 -0.0120183 0.0174571 0 0 0 3.29121e-06 -2.04224e-05 2.17769e-05 -5.64046e-06 -3.87797e-06 -2.84374e-05 0.00113883 -9.38214e-05 -0.00032536 0.004 502.163 1.87903 
28 1 1 0.00814315 -0.0139812 0.018318 0 0 0 7.49083e-06 -2.32717e-05 2.1684e-05 -4.67797e-06 -6.45861e-06 -3.36292e-05 0.00132775 0.00167543 -0.000564955 0.004 666.191 -4.70075 
42 1 1 0.0200408 -0.0148103 0.0172662 0 0 0 3.62941e-06 -1.10045e-05 1.41864e-05 -3.62379e-06 -7.59858e-06 -2.57406e-05 0.000114891 0.000657713 -3.84922e-05 0.004 756.401 -4.28695 