ITEM: TIMESTEP
35200
ITEM: NUMBER OF ATOMS
890
ITEM: BOX BOUNDS mm mm mm
-0.05 0.05
-0.05 0.05
0 0.15
ITEM: ATOMS id type type x y z ix iy iz vx vy vz fx fy fz omegax omegay omegaz radius f_Temp[0] f_heatFlux[0] 
59 1 1 -0.00071555 -0.0460982 0.00395597 0 0 0 -6.87817e-07 4.9128e-07 7.41401e-07 1.75325e-06 -1.31724e-06 1.54979e-07 8.54501e-05 3.18647e-05 0.000172959 0.004 536.563 0.51128 
170 1 1 -0.0173498 -0.0426414 0.00397301 0 0 0 -5.7809e-07 -2.7925e-07 -3.01045e-07 1.74834e-06 1.10345e-07 7.31305e-07 8.62512e-05 -5.93805e-05 2.49025e-05 0.004 400.332 4.29986 
15 1 1 -0.00975016 -0.0449638 0.00393396 0 0 0 -4.79959e-07 -3.78884e-07 -4.10651e-07 2.37917e-06 -2.68522e-07 -3.02201e-07 8.44668e-05 -4.53757e-05 -2.86315e-05 0.004 437.239 3.77787 
116 1 1 0.00648761 -0.0428197 0.00395869 0 0 0 -1.24949e-06 1.88127e-06 1.02996e-06 1.65352e-06 -1.49051e-06 4.59028e-07 -0.000325444 -0.000251288 0.000168529 0.004 615.262 -1.99524 
158 1 1 0.0143627 -0.0437625 0.0038998 0 0 0 -6.42658e-07 1.14571e-06 9.26173e-07 5.55879e-07 7.36862e-08 7.97115e-07 -3.4251e-05 -2.09e-05 -3.541e-05 0.004 667.917 -3.36158 
98 1 1 0.0216779 -0.0406527 0.00394261 0 0 0 -5.44591e-07 9.0821e-07 1.02707e-06 5.67387e-07 3.33042e-07 5.5706e-07 8.74688e-05 -5.21555e-05 6.92571e-06 0.004 711.893 -3.91459 
169 1 1 -0.0244315 -0.0390659 0.00391426 0 0 0 -7.50916e-07 -4.69028e-07 -1.87996e-08 1.5127e-06 -7.63551e-08 1.20567e-07 0.000116131 -3.342e-06 6.28347e-05 0.004 361.156 4.01051 
89 1 1 -0.011812 -0.0369235 0.00395461 0 0 0 -1.40552e-06 8.45482e-07 -2.79795e-07 3.03402e-06 -5.40774e-07 3.16373e-07 -0.00012695 -4.26213e-05 0.000247199 0.004 429.377 3.32243 
152 1 1 -0.00418342 -0.0390223 0.00390523 0 0 0 -1.23466e-06 1.07479e-06 3.28546e-07 3.85298e-06 -1.52669e-06 4.95911e-08 -0.000262926 -0.000196385 -0.000129678 0.004 498.847 1.57879 
23 1 1 0.0153483 -0.035882 0.00391129 0 0 0 -1.19319e-06 1.89181e-06 1.81348e-06 1.35454e-06 -4.63894e-07 1.7073e-07 -0.000125673 -8.42073e-05 2.35525e-05 0.004 679.973 -3.54329 
118 1 1 -0.0307533 -0.0342397 0.00392725 0 0 0 -1.3039e-06 -1.88177e-08 -5.811e-08 4.44599e-07 -7.28056e-07 -5.8491e-08 -0.000125376 -0.000326686 0.000130993 0.004 333.181 3.35177 
30 1 1 -0.0188787 -0.0333717 0.00395274 0 0 0 -2.24584e-06 -3.29855e-07 -4.67555e-07 2.88763e-06 -9.58895e-07 -8.24245e-08 -5.5228e-06 -0.000248596 0.00016124 0.004 375.583 3.8455 
215 1 1 -0.00603632 -0.0313238 0.0039066 0 0 0 -1.50085e-06 2.18503e-07 -2.82783e-07 4.94152e-06 -2.13635e-06 -3.56393e-07 9.67986e-05 -7.29683e-05 0.000447235 0.004 474.581 2.21765 
74 1 1 0.0018414 -0.0338192 0.00390679 0 0 0 -1.97546e-06 2.22442e-06 5.41001e-07 3.93383e-06 -2.95235e-06 -1.98221e-07 -0.00038722 -0.000462678 0.000255795 0.004 557.959 -0.170879 
24 1 1 0.00917856 -0.0308342 0.00392034 0 0 0 -1.57784e-06 2.73417e-06 8.70967e-07 2.33644e-06 -1.41398e-06 4.46472e-07 -0.000378063 -0.000189892 -0.000107786 0.004 638.867 -2.50638 
198 1 1 0.0259423 -0.0339524 0.00395551 0 0 0 -1.09765e-06 1.97213e-06 1.94884e-06 7.10907e-07 1.13803e-06 1.13314e-06 -0.000161873 -9.19375e-05 0.000241562 0.004 744.587 -3.74154 
161 1 1 0.0335301 -0.0316074 0.00391357 0 0 0 -8.33964e-07 2.03915e-06 1.51341e-06 -1.58058e-07 1.02149e-06 9.3179e-07 -0.000167232 5.00326e-05 -0.000227623 0.004 767.24 -3.09635 
8 1 1 -0.0322699 -0.0264156 0.00398404 0 0 0 -1.48553e-06 -8.4164e-07 -1.3061e-06 1.19524e-06 -1.47679e-06 5.55494e-07 -2.96449e-05 0.000309243 -0.000125345 0.004 326.971 2.89725 
12 1 1 -0.0244143 -0.0276959 0.00386437 0 0 0 -3.03426e-06 -1.02418e-06 -1.55921e-06 3.24391e-06 -1.44826e-06 5.54449e-07 0.000277069 -0.000579577 7.3692e-05 0.004 350.351 3.5993 
188 1 1 -0.0131742 -0.0277762 0.00396587 0 0 0 -3.04756e-06 -6.25642e-08 -3.35202e-07 4.06865e-06 -1.9358e-06 -1.58907e-06 -0.000188991 -0.00035874 -2.0567e-05 0.004 396.086 3.83997 
77 1 1 -0.000100239 -0.0260809 0.00389416 0 0 0 -3.05374e-06 2.34544e-06 -6.15463e-07 3.18638e-06 -3.30674e-06 -6.15587e-07 -0.000473904 -0.000635566 0.000140649 0.004 541.311 0.287883 
113 1 1 0.0165643 -0.0280203 0.00388659 0 0 0 -1.28444e-06 2.34551e-06 1.5078e-06 1.62498e-06 -5.13259e-07 7.59401e-07 -0.000282324 -0.000286461 -4.2979e-05 0.004 697.275 -3.49783 
183 1 1 0.0384541 -0.0253742 0.00393847 0 0 0 -6.25683e-07 1.45336e-06 1.65726e-06 1.1682e-09 9.04953e-07 6.79148e-07 2.09954e-05 0.000166813 -0.000204191 0.004 781.383 -2.3076 
162 1 1 -0.0396311 -0.023418 0.00390783 0 0 0 -9.19048e-07 -4.38746e-07 -3.9226e-07 1.02655e-06 -6.65243e-07 -8.89339e-08 0.000101362 -0.00019683 -5.13746e-05 0.004 314.061 1.97508 
53 1 1 -0.027206 -0.0202486 0.00395167 0 0 0 -3.02028e-06 -8.58865e-07 -1.78526e-06 7.39537e-06 -4.91195e-06 2.61703e-06 -3.43992e-05 -0.000557821 0.000349699 0.004 335.908 3.17472 
148 1 1 -0.0187584 -0.0220642 0.00393815 0 0 0 -3.69935e-06 -2.8002e-07 -1.69459e-06 4.52161e-06 -1.3218e-06 1.90135e-06 -0.000123935 -0.000552992 6.09451e-05 0.004 372.366 4.00855 
195 1 1 -0.00727816 -0.02155 0.00394565 0 0 0 -2.40738e-06 1.91805e-06 -1.37512e-06 4.49458e-06 -5.64243e-06 -2.41132e-06 -0.000110916 -0.000380207 0.000154451 0.004 457.116 3.00053 
179 1 1 0.00736629 -0.0231031 0.00394274 0 0 0 -1.50215e-06 3.11032e-06 8.31031e-08 2.74205e-06 -1.52946e-06 1.25376e-07 -0.000280046 -0.000276603 0.000109593 0.004 638.067 -2.59583 
95 1 1 0.0148506 -0.02031 0.00393211 0 0 0 -9.71237e-07 3.01498e-06 1.11833e-06 1.29093e-06 -3.12343e-07 -4.14002e-07 -0.00031621 -0.000120367 -3.20866e-05 0.004 693.102 -3.45938 
76 1 1 0.0230028 -0.0233057 0.00397473 0 0 0 -1.01132e-06 3.82875e-06 2.70261e-06 7.88025e-07 1.73935e-06 8.68971e-07 -0.00047564 -0.000449403 0.000229953 0.004 749.558 -3.55878 
100 1 1 0.0325586 -0.0200895 0.00388595 0 0 0 -1.27052e-06 3.85125e-06 3.65531e-06 7.96987e-07 2.47395e-06 1.3459e-06 -0.000549383 -3.89952e-05 3.61235e-05 0.004 774.654 -2.65154 
65 1 1 -0.0430742 -0.0162802 0.00393145 0 0 0 -1.11406e-06 -4.3245e-07 -7.12515e-07 1.5723e-06 -1.07262e-06 9.01644e-07 3.67001e-05 -8.69539e-05 0.00012075 0.004 309.029 1.46613 
102 1 1 -0.0351583 -0.0155178 0.00394448 0 0 0 -1.76619e-06 -7.78851e-07 -2.16668e-06 6.24877e-06 -4.27634e-06 9.67353e-07 0.000152262 5.94481e-05 -0.000236481 0.004 316.883 2.07457 
213 1 1 -0.0132588 -0.0162738 0.00397364 0 0 0 -4.18531e-06 9.97986e-07 -1.07033e-06 4.04012e-06 -3.39556e-06 1.98331e-06 4.82649e-05 -0.000630551 7.28383e-05 0.004 399.335 4.02435 
10 1 1 0.00114846 -0.0182524 0.00475002 0 0 0 -2.53988e-06 3.81968e-06 -3.48951e-07 1.96478e-06 -3.97266e-06 -3.25122e-07 0.000494643 -0.000162591 -0.000207278 0.004 567.596 -0.607739 
5 1 1 0.00879791 -0.0152553 0.00390315 0 0 0 -1.07865e-06 3.7859e-06 1.24204e-07 1.01442e-07 -2.67228e-06 -1.0253e-06 -0.000261434 -0.000175382 -0.000127758 0.004 648.325 -2.75163 
96 1 1 0.0211693 -0.0155242 0.00395652 0 0 0 -1.19106e-06 4.32436e-06 2.64782e-06 -4.8237e-07 7.67226e-07 3.6147e-07 -0.000332383 -0.000573826 0.000254067 0.004 743.003 -3.47403 
167 1 1 0.0421923 -0.0183683 0.00392112 0 0 0 -8.30319e-07 9.38215e-07 1.12697e-06 -3.75249e-07 9.1725e-07 4.25797e-07 -0.000171646 -0.000229659 -5.23341e-05 0.004 790.974 -1.48987 
124 1 1 -0.029011 -0.0104716 0.0039479 0 0 0 -4.33564e-06 1.58875e-06 -1.28488e-06 6.75597e-06 -4.69087e-06 2.68597e-06 0.000155842 -0.000946901 0.000698009 0.004 332.021 2.81944 
220 1 1 -0.0217759 -0.0144543 0.00398044 0 0 0 -4.77879e-06 1.98398e-06 -1.72534e-06 7.48153e-06 -7.29467e-06 1.9317e-06 -0.00100819 -0.00088843 0.000360807 0.004 355.753 3.44682 
144 1 1 -0.00535515 -0.0138038 0.00388179 0 0 0 -3.13187e-06 2.89529e-06 -2.03926e-06 -3.12366e-07 -4.75883e-06 1.54417e-06 -0.000442681 -0.000709061 0.000282469 0.004 500.455 1.31905 
26 1 1 0.00255574 -0.0104629 0.00390568 0 0 0 -1.91018e-06 3.86805e-06 -9.00134e-07 -1.35426e-06 -4.58408e-06 1.44076e-06 -0.000643026 -7.56576e-05 0.000250096 0.004 572.956 -0.808185 
194 1 1 0.0287352 -0.013103 0.00393081 0 0 0 -3.16996e-07 4.53566e-06 3.39492e-06 -8.76133e-08 2.40927e-06 1.27836e-06 -0.000432863 -5.17416e-06 -0.000238252 0.004 769.336 -2.85771 
37 1 1 0.0366701 -0.0122308 0.00393305 0 0 0 -2.91572e-07 2.62343e-06 3.55549e-06 6.82747e-07 3.91452e-06 9.12955e-07 -0.00069832 -0.000160785 -0.000394817 0.004 787.02 -1.82474 
219 1 1 0.0447285 -0.0108715 0.00390888 0 0 0 -3.8715e-07 8.79459e-07 8.62412e-07 -6.20599e-07 7.82524e-07 -3.10441e-08 -0.000282227 -2.52426e-05 -0.000107406 0.004 794.696 -1.06969 
636 1 1 -0.0451998 -0.00864275 0.0039177 0 0 0 -1.12516e-06 -5.44471e-07 -5.42849e-07 2.08479e-06 -6.47411e-07 1.54257e-06 9.79019e-05 -0.00023997 -0.000110446 0.004 305.278 1.03004 
39 1 1 -0.0161466 -0.00885108 0.00388988 0 0 0 -4.11565e-06 1.79188e-06 -1.76753e-06 1.16598e-06 -4.48204e-06 5.4534e-06 -8.24412e-05 -0.00057536 -0.000180555 0.004 396.018 3.22948 
171 1 1 -0.00395983 -0.00597828 0.00392046 0 0 0 -3.24248e-06 2.85433e-06 -1.72794e-06 -1.46902e-06 -5.06662e-06 4.26507e-06 -0.000110411 -0.000465998 -5.03847e-05 0.004 506.366 1.05435 
200 1 1 0.0146298 -0.0098652 0.00396379 0 0 0 -1.18583e-06 5.05413e-06 1.71869e-06 -1.08865e-06 -1.24459e-06 -7.65041e-07 -0.000516282 -0.000292183 0.000102779 0.004 699.99 -3.66046 
21 1 1 0.022252 -0.00762162 0.00394337 0 0 0 -1.60516e-06 5.28818e-06 2.21083e-06 -2.18805e-06 3.59027e-07 5.36186e-07 -0.000917678 -0.000596882 -3.96166e-06 0.004 745.869 -3.51798 
17 1 1 0.0298456 -0.00520717 0.00394875 0 0 0 -4.5929e-07 5.0063e-06 2.45533e-06 -2.22737e-06 2.1535e-06 1.337e-06 -0.000685285 -0.000117566 0.000137203 0.004 769.431 -2.94158 
477 1 1 -0.0445832 -0.000710814 0.00396285 0 0 0 -1.29097e-06 -4.2384e-07 1.01283e-07 3.28511e-06 -1.93908e-06 3.31161e-06 6.02627e-05 -0.000349475 9.42325e-05 0.004 305.056 0.960957 
140 1 1 -0.0352672 -0.00371827 0.00387247 0 0 0 -2.00451e-06 8.00759e-07 -9.02329e-07 5.41075e-06 -5.16985e-06 5.3315e-06 -0.0001177 -0.000452261 0.000813453 0.004 318.691 1.98232 
119 1 1 -0.0273891 -0.00269833 0.0039639 0 0 0 -2.89128e-06 3.40955e-06 5.51309e-07 3.44591e-06 -3.59303e-06 5.84049e-06 -0.000551022 -0.000276314 -0.00054874 0.004 339.587 2.81665 
207 1 1 -0.0194911 -0.00168728 0.00389511 0 0 0 -1.99146e-06 1.93157e-06 8.69325e-08 -7.96239e-08 -4.94787e-06 9.19927e-06 -8.22392e-05 -0.000158215 -0.000165542 0.004 375.793 3.20495 
69 1 1 -0.0111572 -0.00264551 0.00393007 0 0 0 -2.72793e-06 1.52355e-06 -8.23956e-07 -1.74057e-06 -4.7224e-06 5.59316e-06 6.49623e-05 -0.000292567 -6.65837e-05 0.004 436.304 2.66722 
221 1 1 0.00874804 -0.00448987 0.00393203 0 0 0 -6.7e-07 5.77913e-06 -6.6216e-07 -2.04776e-06 -4.73021e-06 -3.76424e-08 -0.00154714 0.000154526 -8.12222e-05 0.004 659.286 -3.11281 
457 1 1 0.0163505 -0.0020806 0.0039593 0 0 0 -1.87951e-06 5.62743e-06 6.50684e-07 -2.53504e-06 -1.04102e-06 -3.95505e-07 -0.000765352 -0.000791569 0.000229985 0.004 712.402 -3.82743 
155 1 1 0.0378912 -0.00224686 0.00393693 0 0 0 -2.91768e-06 2.82528e-06 4.16144e-06 -1.58612e-06 4.12605e-06 1.92245e-06 -0.000565259 -0.000711045 -0.000489796 0.004 788.01 -1.64272 
665 1 1 0.0459183 -0.00307627 0.0039426 0 0 0 -1.40237e-06 5.5035e-07 7.93299e-07 -1.82822e-06 4.35783e-07 6.79731e-07 0.000111749 -0.000365281 0.000235776 0.004 794.579 -1.0537 
120 1 1 0.00918486 -0.0371091 0.00876936 0 0 0 -3.44122e-06 4.18459e-06 2.04389e-06 4.59124e-06 -2.88901e-06 1.83496e-06 -0.000299777 -0.00041411 -0.000218117 0.004 641.358 -2.70591 
9 1 1 -0.0247147 -0.033359 0.00937623 0 0 0 -3.80143e-06 -1.22709e-07 -1.27193e-06 3.45824e-06 -9.51009e-07 2.85284e-07 -0.000562171 -0.000290475 0.000545462 0.004 352.488 3.77691 
101 1 1 -0.0188615 -0.0277191 0.00955147 0 0 0 -6.86581e-06 1.90032e-07 -1.35754e-06 6.82908e-06 -1.43428e-06 3.11005e-08 -0.000165774 -0.000591137 0.000413015 0.004 370.963 3.84357 
48 1 1 0.0221998 -0.0293138 0.00920032 0 0 0 -2.71182e-06 4.17441e-06 3.12554e-06 1.44973e-06 1.43198e-06 1.93192e-06 -0.00040776 -0.000179302 -3.00763e-05 0.004 732.896 -3.55038 
75 1 1 0.02936 -0.0261745 0.00787422 0 0 0 -1.78841e-06 4.46944e-06 4.23651e-06 2.29985e-07 3.04844e-06 2.36972e-06 0.000480774 -0.00019203 -8.58176e-06 0.004 763.791 -3.0877 
46 1 1 -0.0327912 -0.0205809 0.00958349 0 0 0 -4.82205e-06 -7.48483e-07 -2.86996e-06 8.32199e-06 -4.45136e-06 1.25098e-06 -0.000450971 -8.74298e-06 -0.000352352 0.004 325.731 2.61547 
33 1 1 -0.013034 -0.0220249 0.00949569 0 0 0 -6.05593e-06 1.53751e-07 -2.39894e-06 9.02409e-06 -7.47713e-06 -1.53213e-06 0.000363416 0.0002368 0.000505046 0.004 402.167 3.69742 
11 1 1 0.02689 -0.0187448 0.00924463 0 0 0 -2.45971e-06 7.06607e-06 5.49461e-06 2.26337e-07 2.8399e-06 2.20488e-06 -0.000165152 -0.00011279 -0.000160885 0.004 759.419 -3.15611 
71 1 1 -0.0372751 -0.00954696 0.00876623 0 0 0 -2.9495e-06 -1.10356e-06 -2.52694e-06 5.57167e-06 -6.10005e-06 2.88233e-06 1.2834e-05 -0.000711106 0.00016112 0.004 312.781 1.69693 
62 1 1 -0.0228082 -0.00771371 0.00814037 0 0 0 -4.97776e-06 2.24117e-06 -1.59262e-06 3.29167e-06 -1.0294e-05 1.05741e-05 0.000878094 0.000875277 -0.000663551 0.004 356.565 3.27469 
19 1 1 -0.00970672 -0.00905634 0.00849068 0 0 0 -6.51082e-06 3.62773e-06 -2.87106e-06 2.06767e-07 -8.37735e-06 7.59318e-06 0.000180126 0.000182725 0.000205766 0.004 464.387 1.98452 
187 1 1 0.00796708 -0.00988205 0.00975753 0 0 0 -7.92023e-06 6.20878e-06 2.19247e-06 -9.04742e-08 -7.99133e-06 -2.99784e-06 0.00088395 -0.00230149 0.000498709 0.004 645.237 -3.32558 
157 1 1 0.0395817 -0.00751949 0.00963113 0 0 0 -4.09198e-06 3.00997e-06 6.89415e-06 -2.14733e-06 5.47835e-06 2.98441e-06 0.000542565 -0.000327874 0.00102414 0.004 791.606 -1.38265 
18 1 1 0.00229112 -0.00404902 0.00852645 0 0 0 -3.63387e-06 6.94626e-06 -2.74569e-06 -1.98918e-06 -7.16771e-06 3.83587e-06 -6.6811e-05 -0.000650093 4.49636e-05 0.004 570.765 -0.700238 
185 1 1 -0.00531148 -0.045735 0.0104438 0 0 0 -2.4721e-06 6.80898e-07 3.43433e-07 3.10481e-06 -6.61289e-07 3.02147e-07 -0.000247258 -0.000598632 0.00032254 0.004 490.697 1.96718 
83 1 1 0.00256736 -0.0459473 0.0112661 0 0 0 -2.48018e-06 2.51706e-06 7.04121e-07 3.38601e-06 -1.94452e-06 4.55393e-06 0.000215041 0.000571554 0.00029569 0.004 565.904 -0.518888 
58 1 1 -0.0218568 -0.0405821 0.0112769 0 0 0 -2.26238e-06 5.50065e-08 4.26214e-07 2.53674e-06 -1.46055e-06 6.23813e-07 -8.63826e-05 -0.000339603 0.000370914 0.004 366.142 4.03803 
105 1 1 -0.013586 -0.043966 0.0108788 0 0 0 -1.36743e-06 -7.45684e-08 -1.07431e-06 6.0864e-06 -2.06678e-06 7.98808e-07 -0.000219973 0.000103496 0.000357171 0.004 412.119 4.74845 
223 1 1 0.0103957 -0.0448674 0.0106706 0 0 0 -2.18953e-06 2.36995e-06 2.76485e-07 2.99821e-06 -1.40645e-06 3.92044e-06 -0.00012174 -0.000440412 -8.3616e-05 0.004 633.663 -2.53801 
217 1 1 0.0179432 -0.0424253 0.0108281 0 0 0 -1.88319e-06 1.70898e-06 1.73154e-06 1.82025e-06 -2.90816e-07 1.57641e-06 0.000107363 -7.14487e-05 0.000107834 0.004 686.794 -3.66263 
6 1 1 -0.0162615 -0.0350312 0.0113114 0 0 0 -4.8759e-06 7.54685e-07 -8.66244e-07 6.2943e-06 -2.62755e-06 -1.59349e-06 -0.000321759 0.000194481 9.59544e-05 0.004 393.744 3.8162 
151 1 1 -0.00801308 -0.0382603 0.0108115 0 0 0 -4.27935e-06 7.6169e-07 -4.49754e-08 7.00346e-06 -2.61753e-06 -5.50073e-07 0.000424154 -0.000537733 7.25434e-05 0.004 457.366 2.85609 
2 1 1 0.000443916 -0.038308 0.010271 0 0 0 -4.70352e-06 4.15842e-06 1.23659e-06 7.69909e-06 -4.44127e-06 1.36463e-06 -0.000421962 -0.000591544 0.000193266 0.004 548.916 0.0693678 
117 1 1 0.0249196 -0.0387267 0.0109176 0 0 0 -1.75434e-06 1.92361e-06 1.6461e-06 2.32392e-07 1.08168e-06 1.67754e-06 -2.99454e-07 -4.64434e-06 0.000120912 0.004 731.463 -3.83012 
13 1 1 -0.0323455 -0.0327547 0.011537 0 0 0 -2.34948e-06 4.92092e-07 9.80034e-08 1.62215e-06 -1.44598e-06 -3.12632e-07 0.000109934 0.000227923 -0.000199157 0.004 332.413 3.18022 
193 1 1 -0.00982579 -0.0305006 0.0107685 0 0 0 -5.93485e-06 1.45633e-06 -2.89602e-06 6.17102e-06 -3.83415e-06 -1.23829e-06 -0.00114564 -0.00109251 0.000356709 0.004 447.452 2.88031 
47 1 1 -0.00133758 -0.0305434 0.0103848 0 0 0 -6.33476e-06 3.70547e-06 -1.48322e-06 6.83997e-06 -6.56361e-06 9.70092e-07 5.12436e-05 -0.000577082 -6.82032e-05 0.004 535.854 0.474718 
153 1 1 0.00656462 -0.0300231 0.0113662 0 0 0 -5.22003e-06 4.26308e-06 1.40821e-07 5.49183e-06 -3.8177e-06 1.68143e-07 0.000171647 -0.000373912 0.000168139 0.004 614.391 -1.92017 
41 1 1 0.0148076 -0.0317915 0.010654 0 0 0 -3.38032e-06 4.20179e-06 2.96917e-06 3.96781e-06 -1.85443e-06 1.56074e-06 -8.20814e-05 -0.000245249 0.000154315 0.004 685.522 -3.53485 
163 1 1 0.0311565 -0.0339183 0.0111114 0 0 0 -2.15766e-06 2.797e-06 2.54694e-06 -1.21313e-07 1.84194e-06 2.10055e-06 0.000133682 -7.22037e-05 -8.21492e-05 0.004 762.691 -3.18255 
214 1 1 -0.0375015 -0.0268266 0.010714 0 0 0 -2.7529e-06 4.08922e-07 1.17284e-07 2.99008e-06 -1.95305e-06 -9.28852e-07 -0.000348602 -0.000369314 0.000484288 0.004 320.537 2.41009 
210 1 1 0.0364694 -0.0280972 0.0111135 0 0 0 -1.85968e-06 2.1932e-06 3.27521e-06 -1.45673e-07 1.8852e-06 1.50105e-06 0.000228222 0.00019145 -0.000168348 0.004 780.278 -2.3256 
108 1 1 -0.0260916 -0.0246404 0.0109304 0 0 0 -7.08268e-06 -5.47781e-07 -1.52476e-06 8.01529e-06 -3.50569e-06 2.89123e-06 -0.000561963 0.000252705 0.000497517 0.004 344.111 3.27239 
40 1 1 -0.00551112 -0.0238697 0.0113285 0 0 0 -7.10097e-06 3.48298e-06 -3.009e-06 6.82467e-06 -7.96945e-06 -1.7468e-06 -5.40235e-05 -0.000633371 0.000319825 0.004 486.877 1.79603 
55 1 1 0.00236209 -0.0232851 0.0108248 0 0 0 -5.6926e-06 5.01342e-06 -1.50058e-06 5.24768e-06 -7.16448e-06 -1.53833e-06 -0.00037643 0.000132643 -3.01623e-05 0.004 578.439 -0.82722 
91 1 1 0.0120918 -0.0243837 0.0101856 0 0 0 -4.14929e-06 5.21278e-06 2.52013e-06 3.68254e-06 -1.36161e-06 5.3856e-07 -0.000106986 -0.000606406 -3.52024e-05 0.004 667.86 -3.23634 
112 1 1 0.0192794 -0.0205361 0.0105073 0 0 0 -3.76146e-06 6.97046e-06 3.83512e-06 9.04276e-07 5.25224e-07 -1.29763e-07 -0.000385107 -0.0007144 0.000371436 0.004 717.946 -3.75866 
178 1 1 0.0318658 -0.0225254 0.0144788 0 0 0 -5.79963e-06 5.0207e-06 7.17211e-06 8.552e-07 3.71563e-06 2.49123e-06 -0.00038934 -0.000641194 0.000257708 0.004 775.86 -2.56971 
131 1 1 0.0407765 -0.0214683 0.0110513 0 0 0 -2.07133e-06 1.77547e-06 2.77645e-06 -3.66716e-07 2.19927e-06 1.53009e-06 0.000120779 0.000311872 2.24123e-05 0.004 788.199 -1.7304 
160 1 1 -0.0414721 -0.0199398 0.0108131 0 0 0 -2.48272e-06 -8.8495e-07 -1.00025e-06 1.65983e-06 -1.42116e-06 8.07268e-09 5.20261e-05 -0.000215168 -0.000121466 0.004 310.728 1.63524 
43 1 1 -0.0361086 -0.0151005 0.0142597 0 0 0 -4.92544e-06 -1.49749e-06 -3.52853e-06 6.03988e-06 -4.50404e-06 6.64389e-07 0.000393616 -7.17999e-05 0.000166881 0.004 317.231 1.97918 
4 1 1 -0.0270343 -0.0151184 0.010074 0 0 0 -5.66741e-06 7.00746e-07 -4.99006e-06 1.1651e-05 -4.42081e-06 4.94223e-06 0.000196132 0.000378017 0.000589639 0.004 339.382 3.10365 
104 1 1 -0.020301 -0.0192302 0.0111976 0 0 0 -7.41449e-06 1.35785e-06 -3.95733e-06 9.83366e-06 -4.67646e-06 7.21047e-06 -0.000215811 -0.000797416 -0.000801818 0.004 367.001 3.56953 
20 1 1 -0.00745479 -0.0162218 0.0110955 0 0 0 -8.56182e-06 3.57203e-06 -5.14514e-06 3.37962e-06 -1.07512e-05 1.77894e-06 0.000106409 -0.000703847 -0.000185993 0.004 479.723 1.80823 
45 1 1 0.00082507 -0.0164513 0.0146047 0 0 0 -8.07513e-06 6.10384e-06 -3.60746e-06 2.43088e-06 -9.80264e-06 1.71167e-06 -0.000273207 -0.000122722 0.000380351 0.004 558.811 -0.292801 
159 1 1 0.0079516 -0.0177076 0.011347 0 0 0 -5.90386e-06 6.05859e-06 -1.19714e-06 1.10665e-06 -4.32201e-06 -1.03127e-06 -0.000290274 -0.000872563 0.000215397 0.004 641.069 -2.5666 
136 1 1 0.0347931 -0.0163371 0.0104655 0 0 0 -2.77531e-06 5.29712e-06 6.90547e-06 -4.32688e-07 4.29496e-06 1.84543e-06 0.000504557 -7.08209e-05 -0.000598486 0.004 781.637 -2.19402 
177 1 1 -0.0443274 -0.0125289 0.0108104 0 0 0 -1.91582e-06 -9.90361e-07 -1.48613e-06 2.62864e-06 -1.75077e-06 1.64836e-06 -7.05092e-05 0.000243444 -6.60162e-06 0.004 307.609 1.27921 
139 1 1 -0.016821 -0.0121092 0.0110438 0 0 0 -7.94705e-06 4.2758e-06 -2.98938e-06 6.66192e-06 -6.27535e-06 1.05305e-05 -0.000535808 -0.00102905 0.00125754 0.004 388.068 3.30382 
211 1 1 -0.00209538 -0.0104148 0.0103074 0 0 0 -6.72623e-06 5.2851e-06 -3.90802e-06 -7.04105e-07 -9.08649e-06 5.15188e-06 -9.55594e-05 -0.000537821 4.39013e-05 0.004 527.942 0.493251 
54 1 1 0.0149155 -0.0138957 0.0108309 0 0 0 -4.64039e-06 7.58506e-06 2.03646e-06 -1.2025e-06 -1.10626e-06 -4.19222e-07 0.000252498 -0.000309451 -0.000275464 0.004 699.564 -3.75241 
84 1 1 0.023272 -0.0118009 0.0106602 0 0 0 -3.01319e-06 9.20015e-06 5.23177e-06 -2.1287e-06 8.58446e-07 1.38728e-06 -0.000329277 0.000165338 -2.90174e-05 0.004 749.563 -3.42482 
180 1 1 0.0438204 -0.0140997 0.0110465 0 0 0 -1.66683e-06 2.13533e-06 3.12292e-06 -9.71348e-07 2.78929e-06 1.26417e-06 0.000241438 1.79854e-05 -0.00030641 0.004 793.561 -1.19715 
103 1 1 0.0174441 -0.00636559 0.0105707 0 0 0 -3.75981e-06 9.70959e-06 3.85596e-06 -4.77778e-06 -2.09317e-06 1.37697e-06 5.42717e-05 -0.000434587 0.000168521 0.004 717.815 -3.70842 
156 1 1 0.0308891 -0.00946112 0.0106299 0 0 0 -2.67843e-06 8.77354e-06 6.74332e-06 -2.80898e-06 3.7391e-06 2.26361e-06 -0.000386856 -0.00084738 0.00021667 0.004 771.687 -2.71132 
197 1 1 -0.0457831 -0.0047112 0.0107571 0 0 0 -2.18593e-06 -9.69797e-07 -1.027e-06 3.60543e-06 -1.18091e-06 4.35278e-06 8.17076e-05 -7.50377e-05 -1.51368e-05 0.004 305.385 1.01512 
87 1 1 -0.0386059 -0.00381153 0.0141381 0 0 0 -3.39407e-06 -5.96436e-06 -1.66939e-06 6.38641e-06 -1.1594e-05 1.10287e-05 0.00112907 0.000429127 -0.000563105 0.004 309.724 1.40963 
130 1 1 -0.0313597 -0.00387383 0.0107774 0 0 0 -5.6682e-06 2.56362e-06 -1.75766e-07 6.99881e-06 -3.96924e-06 1.02429e-05 0.00147302 -0.000692951 0.000932655 0.004 322.892 2.23207 
604 1 1 -0.0224595 -0.00030085 0.0110795 0 0 0 -2.0828e-06 3.99511e-06 1.04911e-06 8.56162e-07 -8.87171e-06 1.96615e-05 -0.000995692 0.000407539 0.00112325 0.004 363.9 3.04032 
146 1 1 -0.0155078 -0.00400726 0.0103913 0 0 0 -2.91303e-06 5.90116e-06 7.30873e-07 1.97498e-06 -7.16217e-06 1.28547e-05 -0.000921655 0.000791086 -0.000752865 0.004 409.073 2.86352 
57 1 1 -0.00517522 -0.00310604 0.0111954 0 0 0 -5.55174e-06 6.16224e-06 -4.62531e-06 8.16892e-07 -9.45628e-06 9.72358e-06 -0.000509239 7.25854e-05 -0.000232577 0.004 505.756 1.08874 
493 1 1 0.0116957 -0.000875012 0.0103666 0 0 0 -3.72945e-06 1.14455e-05 -1.73383e-06 -6.7753e-06 -7.7312e-06 2.27659e-06 0.000557723 -0.00203494 -0.000104481 0.004 678.168 -3.29283 
31 1 1 0.0250484 -0.00405415 0.0104601 0 0 0 -3.36832e-06 9.66074e-06 4.88227e-06 -5.32977e-06 9.78595e-07 1.32999e-06 -3.12843e-05 0.000301753 -8.28718e-05 0.004 751.528 -3.26985 
588 1 1 0.0325999 -0.00174524 0.0105431 0 0 0 -3.7209e-06 9.11708e-06 5.4682e-06 -5.48799e-06 4.84846e-06 2.12348e-06 -0.000244882 -0.000798402 1.07321e-05 0.004 772.412 -2.5622 
63 1 1 0.045924 -0.0032788 0.0119253 0 0 0 -2.64765e-06 2.28026e-06 3.92144e-06 -2.18313e-06 3.69236e-06 2.78423e-06 -0.000386887 0.00086784 -0.000715876 0.004 793.677 -1.13301 
107 1 1 -0.00850634 -0.045273 0.017677 0 0 0 -5.93679e-06 2.31004e-06 -8.41301e-07 5.06962e-06 -2.26491e-06 3.46592e-06 -0.000531992 -0.000149318 0.00107187 0.004 473.66 2.26735 
222 1 1 -0.00141961 -0.0418101 0.0171129 0 0 0 -7.77489e-06 4.31165e-06 4.51727e-08 7.68566e-06 -3.91239e-06 2.84765e-06 0.000746812 3.06418e-05 -0.000509403 0.004 539.966 0.356726 
142 1 1 0.00615863 -0.0401388 0.0154211 0 0 0 -5.9182e-06 3.24239e-06 1.70843e-06 7.03056e-06 -1.55313e-06 4.68088e-06 0.000706082 -0.000205915 0.000124762 0.004 603.418 -1.61877 
172 1 1 0.0116013 -0.0446446 0.0189547 0 0 0 -3.9143e-06 2.25291e-06 1.62898e-06 4.18588e-06 -1.48549e-07 4.75566e-06 0.000322993 -0.000460719 0.00064524 0.004 644.553 -2.84887 
109 1 1 0.0204197 -0.0412797 0.0183142 0 0 0 -2.79995e-06 1.16899e-06 1.46597e-06 3.29327e-06 3.4287e-07 2.82897e-06 0.000434234 6.15562e-05 0.000285076 0.004 714.826 -4.21334 
150 1 1 -0.0273271 -0.0370832 0.0158763 0 0 0 -3.01116e-06 7.98358e-07 -2.50787e-07 2.35266e-06 -4.55157e-07 7.72316e-07 -0.000184057 7.10649e-05 0.000128895 0.004 348.051 3.63535 
38 1 1 -0.0197788 -0.0373719 0.0182823 0 0 0 -6.18602e-06 2.45411e-06 -1.59864e-07 6.26064e-06 -2.48474e-06 -1.77217e-06 -0.000791807 -0.000231187 0.000128594 0.004 379.706 3.85332 
199 1 1 -0.0118545 -0.0370266 0.01765 0 0 0 -8.52901e-06 1.9933e-06 -3.73999e-07 6.68616e-06 -7.34839e-06 -7.8431e-07 -0.000272185 -0.000305322 -0.000352241 0.004 418.206 3.54956 
93 1 1 0.0137643 -0.0377759 0.0156807 0 0 0 -4.87837e-06 3.32999e-06 3.28114e-06 5.65521e-06 -1.30113e-06 3.97223e-06 4.82761e-05 -0.000274432 -6.16075e-05 0.004 668.504 -3.33513 
64 1 1 0.0280176 -0.0365092 0.0179286 0 0 0 -4.49137e-06 9.14213e-07 2.60802e-06 7.37818e-07 1.77532e-06 3.66118e-06 0.000464217 -0.000410143 0.000827263 0.004 756.897 -3.69542 
22 1 1 -0.0327402 -0.032422 0.0194567 0 0 0 -5.11734e-06 2.30276e-06 1.63467e-07 2.08009e-06 -2.10909e-06 9.15083e-07 -0.000400746 -0.000638307 0.00117694 0.004 329.758 2.94712 
174 1 1 -0.0224319 -0.0302105 0.0162617 0 0 0 -7.68174e-06 1.94971e-06 -1.53282e-06 7.66711e-06 -3.9047e-06 -6.34408e-07 0.000465913 0.000132019 0.00038902 0.004 365.123 3.73925 
32 1 1 -0.00428309 -0.0343967 0.0166775 0 0 0 -1.06995e-05 3.83447e-06 -1.19523e-06 6.73335e-06 -8.04724e-06 7.20142e-07 -0.000976582 -0.000832185 0.000943921 0.004 507.524 1.33305 
128 1 1 0.0034746 -0.033132 0.0179959 0 0 0 -1.02476e-05 5.30129e-06 -2.37731e-07 6.60952e-06 -5.37946e-06 6.81285e-07 -0.00103903 -0.000732194 1.06243e-05 0.004 575.732 -0.815714 
88 1 1 0.0113687 -0.0304834 0.0177099 0 0 0 -7.76153e-06 5.09727e-06 1.1909e-06 6.06225e-06 -2.14142e-06 1.18706e-06 -0.000361125 -0.000923936 -1.02372e-05 0.004 664.555 -3.14555 
137 1 1 0.0208046 -0.0338186 0.0156333 0 0 0 -3.99972e-06 3.90263e-06 3.36222e-06 5.6193e-06 1.74995e-06 5.07246e-06 0.000327877 -0.000113408 2.50914e-05 0.004 729.479 -4.13962 
154 1 1 0.033982 -0.0311387 0.0180551 0 0 0 -3.33414e-06 1.74347e-06 3.24524e-06 2.2179e-07 2.3063e-06 2.48025e-06 0.000350292 0.000133418 -5.68882e-05 0.004 777.1 -2.48508 
52 1 1 -0.031991 -0.0252343 0.0161625 0 0 0 -5.89536e-06 2.34628e-06 1.39787e-06 5.55846e-06 -4.06135e-06 -1.09788e-06 -0.000100615 -5.44362e-05 -0.000458084 0.004 328.051 2.67199 
80 1 1 -0.00960097 -0.0265066 0.0175804 0 0 0 -1.28014e-05 5.6774e-06 -5.71933e-06 5.23707e-06 -6.75659e-06 1.82495e-06 -0.000235429 -0.00089382 -0.000928971 0.004 449.026 2.63853 
125 1 1 -0.00117361 -0.0267001 0.0173742 0 0 0 -1.09022e-05 2.3569e-06 -2.59191e-06 3.64143e-06 -1.09828e-05 -6.40189e-07 0.000775844 -0.000537928 9.93449e-06 0.004 535.962 0.455359 
72 1 1 0.0179273 -0.0264316 0.015637 0 0 0 -5.62483e-06 6.68397e-06 4.59936e-06 3.258e-06 8.48741e-07 1.80399e-06 -2.61816e-05 -0.000389803 0.000103754 0.004 710.481 -3.9168 
34 1 1 0.0269647 -0.0287251 0.0154182 0 0 0 -5.18045e-06 4.4038e-06 5.5663e-06 1.33798e-06 3.46065e-06 3.29485e-06 0.000544146 -0.000362452 0.000130095 0.004 760.696 -3.09777 
218 1 1 -0.0395968 -0.0234663 0.0176916 0 0 0 -3.16338e-06 1.75744e-06 6.44905e-07 2.73878e-06 -2.93702e-06 -2.62645e-06 -0.000677127 -0.000245182 0.000676456 0.004 313.272 1.80477 
70 1 1 -0.0247175 -0.0230258 0.0185785 0 0 0 -8.3281e-06 2.94947e-06 -5.50727e-07 7.9615e-06 -5.85769e-06 3.27235e-06 -0.000721359 0.000169552 0.000107996 0.004 349.907 3.1523 
132 1 1 -0.0171323 -0.0242635 0.0164744 0 0 0 -1.11566e-05 4.3972e-06 -3.93881e-06 8.16062e-06 -5.61264e-06 4.46854e-06 -0.00053673 0.000774332 0.000849913 0.004 386.334 3.47656 
196 1 1 0.00716652 -0.023789 0.0170601 0 0 0 -8.08317e-06 3.94475e-06 -1.48673e-06 4.11089e-06 -6.38287e-06 -1.45035e-06 0.00131828 -0.00105056 0.000800235 0.004 636.324 -2.36111 
362 1 1 0.0243874 -0.0214292 0.0170617 0 0 0 -7.47752e-06 8.21825e-06 7.95371e-06 2.17647e-06 2.59265e-06 3.56308e-06 -8.22711e-05 -4.48845e-05 -0.000163617 0.004 759.732 -3.14606 
49 1 1 0.0387627 -0.0248027 0.0179815 0 0 0 -3.10877e-06 1.67814e-06 3.57725e-06 2.90929e-07 1.9663e-06 2.06575e-06 -7.52157e-05 -0.000194518 8.33935e-05 0.004 786.194 -1.91318 
173 1 1 -0.0431191 -0.0163148 0.0177078 0 0 0 -2.01291e-06 -7.48845e-07 -1.69366e-06 2.93335e-06 -3.05488e-06 1.06004e-06 -9.60781e-05 0.000386699 -0.000351117 0.004 310.29 1.47614 
50 1 1 -0.0295065 -0.0167659 0.0182811 0 0 0 -5.8842e-06 2.07279e-06 -4.49267e-06 8.84728e-06 -3.55213e-06 1.8918e-06 -0.0013729 0.000675905 0.000150789 0.004 330.852 2.51109 
202 1 1 -0.0134619 -0.0172167 0.0161106 0 0 0 -1.16211e-05 4.1706e-06 -6.02328e-06 1.00885e-05 -9.65917e-06 9.20963e-06 0.00103597 0.000466975 -0.00114579 0.004 418.59 2.95937 
86 1 1 -0.00524865 -0.0199157 0.0183757 0 0 0 -1.03275e-05 4.02544e-06 -4.46893e-06 7.48248e-06 -1.08812e-05 7.678e-06 -0.000123513 -0.000667371 -4.57783e-05 0.004 501.364 1.38331 
129 1 1 0.0138597 -0.0196295 0.016286 0 0 0 -7.25016e-06 8.86485e-06 2.17498e-06 6.44627e-07 -1.32077e-06 4.13005e-08 -0.000718806 -7.0307e-05 0.000210221 0.004 689.684 -3.37818 
82 1 1 0.0291401 -0.0151359 0.0159324 0 0 0 -5.78094e-06 9.21001e-06 8.61468e-06 1.28039e-06 4.10436e-06 2.69182e-06 -0.000141332 -0.000684042 -0.000104987 0.004 772.187 -2.67991 
1 1 1 0.0424683 -0.0178049 0.0178803 0 0 0 -3.57315e-06 1.52272e-06 3.64794e-06 5.32103e-07 1.96699e-06 1.80167e-06 5.01211e-05 -0.000104955 -2.28917e-05 0.004 790.932 -1.45634 
168 1 1 -0.0224798 -0.0136304 0.0164169 0 0 0 -7.62998e-06 4.27269e-06 -6.12678e-06 1.03407e-05 -5.05803e-06 1.26282e-05 -0.000509435 -0.000628919 0.000141766 0.004 360.289 3.2166 
121 1 1 -0.00514896 -0.0120184 0.0174568 0 0 0 -1.16071e-05 3.47017e-06 -7.48189e-06 3.14898e-06 -1.24581e-05 1.00009e-05 -0.000113845 -0.000279091 0.000827446 0.004 509.928 1.02296 
28 1 1 0.00814312 -0.0139813 0.0183177 0 0 0 -9.74564e-06 8.21786e-06 -3.92371e-06 -2.70829e-06 -7.24606e-06 3.11671e-06 -0.000268763 -0.00014203 -0.000563966 0.004 646.207 -2.74489 
42 1 1 0.0200408 -0.0148104 0.017266 0 0 0 -7.14469e-06 1.13143e-05 6.08631e-06 5.35105e-07 -9.64411e-07 1.14783e-06 0.000187108 -0.00118585 -0.000111651 0.004 734.809 -3.44938 
60 1 1 0.0376281 -0.0116471 0.016172 0 0 0 -5.75984e-06 2.90744e-06 1.11081e-05 -3.62318e-06 4.9235e-06 3.29341e-06 -0.000246584 -0.00109164 -0.000110979 0.004 789.289 -1.56797 