ITEM: TIMESTEP
26400
ITEM: NUMBER OF ATOMS
890
ITEM: BOX BOUNDS mm mm mm
-0.05 0.05
-0.05 0.05
0 0.15
ITEM: ATOMS id type type x y z ix iy iz vx vy vz fx fy fz omegax omegay omegaz radius f_Temp[0] f_heatFlux[0] 
59 1 1 -0.00071555 -0.0460982 0.00395598 0 0 0 -7.36795e-07 -2.38409e-06 -6.62381e-06 2.63897e-08 -2.36466e-06 -9.93688e-07 -0.00100266 -0.000274642 0.000784075 0.004 521.731 4.13917 
170 1 1 -0.0173498 -0.0426414 0.00397301 0 0 0 -2.78165e-06 -3.7147e-06 -4.75441e-06 1.3157e-06 -2.57704e-06 -1.10561e-06 -0.000391805 -0.000281677 2.21606e-05 0.004 341.879 7.18945 
15 1 1 -0.00975016 -0.0449638 0.00393396 0 0 0 -1.07011e-06 -7.21548e-06 -8.03106e-06 1.89637e-07 -3.51221e-06 -3.27906e-07 0.00162958 0.000667099 -0.000794383 0.004 379.629 8.39656 
116 1 1 0.00648761 -0.0428197 0.00395869 0 0 0 -8.97654e-07 -4.24139e-06 -1.21806e-05 1.72655e-06 -2.85641e-06 5.36921e-08 -0.00162848 0.000110875 -0.00110014 0.004 645.937 -4.32955 
158 1 1 0.0143627 -0.0437625 0.00389981 0 0 0 2.32285e-06 -6.09011e-06 -9.7114e-06 7.76831e-07 -9.32272e-07 -4.02973e-07 0.000640845 0.000379013 0.000834797 0.004 722.004 -8.28005 
98 1 1 0.0216779 -0.0406527 0.00394262 0 0 0 -1.53149e-06 -2.00138e-06 -4.6182e-06 7.97992e-08 5.17425e-07 2.63555e-07 6.09815e-05 -0.000699439 0.00054733 0.004 765.752 -6.66401 
169 1 1 -0.0244315 -0.0390659 0.00391426 0 0 0 -5.35082e-06 -6.84921e-06 -8.68965e-06 -2.14878e-07 -1.25071e-06 2.491e-07 -4.24974e-05 -0.000255246 0.000302646 0.004 316.109 4.18951 
89 1 1 -0.011812 -0.0369235 0.00395462 0 0 0 -3.8926e-06 -5.81502e-06 -1.37918e-05 7.30378e-07 -2.89008e-06 3.48413e-07 0.00143743 0.00162922 0.000217642 0.004 380.085 7.14358 
152 1 1 -0.00418343 -0.0390223 0.00390524 0 0 0 -2.92892e-06 -5.21199e-06 -2.229e-05 3.17865e-06 -2.50611e-06 -2.13281e-06 -0.000839843 -0.00033306 0.000237553 0.004 470.469 5.14027 
23 1 1 0.0153483 -0.035882 0.00391131 0 0 0 -2.37976e-06 -4.65978e-06 -1.56142e-05 1.19814e-06 -8.64086e-07 -1.4188e-06 -0.000654095 -0.00143894 0.000168937 0.004 736.249 -8.53573 
118 1 1 -0.0307533 -0.0342397 0.00392724 0 0 0 -5.18691e-06 -5.27096e-06 -6.32419e-06 -1.01996e-06 -1.24513e-06 7.12981e-07 0.000619499 -0.0011003 0.000114108 0.004 304.258 1.67165 
30 1 1 -0.0188787 -0.0333717 0.00395274 0 0 0 -1.10347e-05 -9.85507e-06 -1.58669e-05 -1.64497e-06 -4.869e-06 -1.92781e-07 -0.000377036 -0.00228875 0.000779869 0.004 328.522 5.14361 
215 1 1 -0.00603632 -0.0313238 0.00390662 0 0 0 -1.71234e-06 -1.30776e-05 -2.33254e-05 7.12048e-06 -8.68293e-06 -1.06962e-06 0.00249062 -0.000167282 0.000952737 0.004 435.284 7.12368 
74 1 1 0.00184139 -0.0338192 0.00390681 0 0 0 -7.2969e-07 -3.61555e-06 -2.46783e-05 6.23766e-06 -5.24982e-06 -3.41412e-06 0.000357351 -0.000356304 -0.000583063 0.004 560.456 -0.700051 
24 1 1 0.00917855 -0.0308342 0.00392037 0 0 0 -3.32704e-06 -3.01588e-06 -2.35663e-05 2.58568e-06 -2.5227e-06 -2.97741e-06 0.000844007 -0.00131015 0.000447502 0.004 682.034 -7.54445 
198 1 1 0.0259423 -0.0339524 0.00395553 0 0 0 -2.34796e-06 -4.87003e-07 -7.94237e-06 1.48008e-06 1.08362e-06 5.78691e-07 -0.00165973 -0.00129234 -0.00102425 0.004 786.824 -3.8702 
161 1 1 0.0335301 -0.0316074 0.00391359 0 0 0 -1.01476e-06 -3.8215e-06 -3.26451e-06 -4.38944e-07 4.34038e-07 1.07527e-06 0.000688058 -0.000573027 0.000908643 0.004 795.457 -1.80174 
8 1 1 -0.0322699 -0.0264156 0.00398404 0 0 0 -6.16462e-06 -5.90657e-06 -1.06682e-05 6.09419e-07 -8.62098e-07 -1.22621e-06 -0.000646518 0.0024911 0.000103179 0.004 303.155 1.28567 
12 1 1 -0.0244143 -0.0276959 0.00386437 0 0 0 -1.26552e-05 -1.17251e-05 -2.38992e-05 4.92758e-07 -3.50994e-06 -8.55521e-07 0.00193597 -0.00179341 -0.00124276 0.004 311.87 3.33596 
188 1 1 -0.0131742 -0.0277762 0.00396589 0 0 0 -1.02395e-05 -1.03709e-05 -1.75102e-05 1.07954e-06 -1.14771e-05 -1.74648e-06 0.000345304 -0.00236657 -9.71909e-05 0.004 343.652 6.65694 
77 1 1 -0.000100243 -0.0260809 0.0038942 0 0 0 -1.3275e-05 -3.26255e-06 -2.47756e-05 3.51543e-06 -3.84626e-06 -4.05805e-06 -0.000362209 -0.00187525 0.00310235 0.004 535.333 1.16833 
113 1 1 0.0165643 -0.0280203 0.00388663 0 0 0 -3.80445e-06 -1.65498e-06 -1.50178e-05 2.81466e-06 -2.86749e-07 -1.77519e-06 0.000649738 -0.000976099 0.000167221 0.004 748.837 -7.33936 
183 1 1 0.0384541 -0.0253742 0.00393849 0 0 0 -9.23726e-07 -1.6751e-06 -1.63906e-06 -1.86573e-07 7.34715e-07 2.83571e-07 -0.000107463 -0.000254829 0.000320724 0.004 798.542 -0.732924 
162 1 1 -0.0396311 -0.023418 0.00390783 0 0 0 -5.71076e-06 -2.40793e-06 -5.3303e-06 2.77709e-07 -1.38668e-06 -5.96905e-07 0.00057767 -0.00122433 -0.00140305 0.004 300.841 0.451751 
53 1 1 -0.027206 -0.0202486 0.00395167 0 0 0 -1.19545e-05 -5.82768e-06 -1.67609e-05 6.2291e-06 -5.66652e-06 -7.9161e-07 0.000278221 -0.00432702 0.000907553 0.004 306.028 2.08161 
148 1 1 -0.0187585 -0.0220642 0.00393817 0 0 0 -1.5711e-05 -1.43424e-05 -2.739e-05 4.35596e-06 -7.61115e-06 -1.7103e-06 0.00150717 -0.0026515 0.00110274 0.004 322.42 5.2765 
195 1 1 -0.0072782 -0.0215501 0.00394569 0 0 0 2.67524e-06 1.01411e-05 -2.58845e-05 7.0561e-06 -5.47304e-06 -7.50473e-06 -0.000771905 0.00256834 0.00292202 0.004 401.682 9.57324 
179 1 1 0.00736628 -0.0231031 0.00394278 0 0 0 -8.09452e-06 -1.92072e-06 -2.08921e-05 2.27401e-06 -1.57678e-06 -4.1722e-06 0.000343316 -0.000158028 0.000155535 0.004 685.366 -8.69575 
95 1 1 0.0148506 -0.02031 0.00393219 0 0 0 -4.05986e-06 4.39316e-07 -2.28279e-05 2.28027e-06 2.32736e-06 -6.91685e-06 -0.000143349 -0.000410031 0.000416157 0.004 744.98 -7.49496 
76 1 1 0.0230027 -0.0233057 0.00397477 0 0 0 -3.14949e-06 -2.84279e-06 -8.87607e-06 1.87559e-06 1.97168e-06 -1.57687e-06 -4.94711e-06 0.000236719 -0.000613232 0.004 787.927 -3.38532 
100 1 1 0.0325586 -0.0200895 0.00388601 0 0 0 -6.64754e-07 -5.66959e-06 -4.72846e-06 -3.72101e-08 1.45064e-06 -3.03903e-06 0.000988728 -0.000804316 6.60935e-05 0.004 796.942 -1.26142 
65 1 1 -0.0430742 -0.0162802 0.00393145 0 0 0 -3.96165e-06 2.58463e-07 -6.24926e-06 4.3417e-07 -1.42533e-06 -1.86973e-07 -9.20527e-05 0.000426053 0.000731195 0.004 300.355 0.219033 
102 1 1 -0.0351583 -0.0155178 0.00394449 0 0 0 -1.12411e-05 -1.12126e-07 -1.68239e-05 4.13065e-06 -5.83462e-06 -3.20149e-06 -3.71726e-05 -0.000556026 -0.0012603 0.004 301.418 0.683225 
213 1 1 -0.0132588 -0.0162738 0.00397367 0 0 0 -2.04852e-05 -1.74709e-06 -1.90368e-05 3.28937e-07 -6.69061e-06 -1.17537e-07 0.00159103 -0.00434486 0.00089638 0.004 340.672 7.55566 
10 1 1 0.00114844 -0.0182524 0.00475009 0 0 0 -1.1299e-05 5.48848e-06 -2.9598e-05 2.75251e-06 8.98481e-08 -7.75812e-06 0.00221802 -0.00367083 -0.0028169 0.004 579.439 -2.60835 
5 1 1 0.00879788 -0.0152554 0.00390323 0 0 0 -6.86765e-07 2.68282e-06 -2.50895e-05 2.90435e-06 8.07034e-07 -9.07784e-06 0.00115742 0.000186467 -0.000728867 0.004 693.713 -7.34969 
96 1 1 0.0211693 -0.0155243 0.00395659 0 0 0 -2.86536e-06 5.57324e-07 -1.35183e-05 -3.26008e-06 7.00587e-06 -7.0855e-06 -0.000707506 -0.00111064 -0.000836612 0.004 783.143 -4.02373 
167 1 1 0.0421923 -0.0183683 0.00392114 0 0 0 -1.24692e-06 -6.72195e-07 3.39175e-08 4.81993e-07 -3.77259e-07 -1.44398e-06 0.000371192 -0.000414806 -0.000121783 0.004 799.668 -0.211013 
124 1 1 -0.029011 -0.0104716 0.00394791 0 0 0 -1.75025e-05 2.49362e-06 -1.66043e-05 -4.31762e-06 2.50997e-08 4.03956e-07 0.00108897 -0.00286994 0.000928764 0.004 305.249 1.88558 
220 1 1 -0.0217759 -0.0144544 0.00398045 0 0 0 -1.41165e-05 8.10279e-06 -1.20018e-05 1.82672e-06 -2.04463e-06 -1.03506e-06 -0.00410392 -0.00111585 0.00265558 0.004 316.605 3.84594 
144 1 1 -0.00535518 -0.0138039 0.00388188 0 0 0 -4.79647e-06 9.96849e-06 -4.14342e-05 6.20765e-07 -2.15633e-06 -1.20013e-05 -0.00235628 -0.0011936 0.00186264 0.004 474.954 4.80956 
26 1 1 0.0025557 -0.010463 0.00390577 0 0 0 -2.31921e-06 8.98496e-06 -3.09756e-05 1.64926e-06 1.79551e-06 -8.5917e-06 -0.00359126 -0.00230908 -8.56672e-06 0.004 586.168 -2.18956 
194 1 1 0.0287352 -0.013103 0.00393089 0 0 0 -4.30791e-07 -4.04556e-06 -8.06547e-06 -1.0921e-06 2.01126e-06 -8.4943e-06 0.000520186 -4.99574e-05 0.000128568 0.004 795.285 -1.70758 
37 1 1 0.03667 -0.0122308 0.00393313 0 0 0 -1.51714e-06 -1.08214e-05 -6.51361e-07 -8.04404e-06 8.00161e-06 -3.54797e-06 0.00239237 -0.00054336 -0.0021488 0.004 799.187 -0.424807 
219 1 1 0.0447285 -0.0108715 0.00390889 0 0 0 2.15417e-07 3.33047e-07 1.27085e-06 1.06131e-06 -2.07502e-06 -2.84867e-06 -0.000177511 0.000284771 3.8599e-05 0.004 799.907 -0.0717242 
636 1 1 -0.0451997 -0.00864275 0.00391771 0 0 0 -4.87915e-06 -1.7085e-07 -5.22607e-06 -3.54522e-06 3.54921e-07 -8.62595e-07 -4.43472e-05 -0.000831559 -3.24436e-06 0.004 300.11 0.0805914 
39 1 1 -0.0161466 -0.00885111 0.00388994 0 0 0 -1.2604e-05 1.07502e-05 -3.22416e-05 -2.7239e-06 1.31081e-06 -4.92031e-06 -0.000874242 -0.000553335 -0.00280001 0.004 349.74 6.32459 
171 1 1 -0.00395986 -0.00597831 0.00392056 0 0 0 -5.7478e-06 8.78966e-06 -4.01423e-05 -5.73349e-07 -8.78117e-07 -1.23636e-05 0.000461248 -0.00166715 -0.00153758 0.004 484.838 4.46892 
200 1 1 0.0146298 -0.00986524 0.00396387 0 0 0 2.47488e-06 4.32771e-06 -1.80797e-05 2.2747e-07 7.89455e-06 -7.74931e-06 -9.47841e-05 0.00066661 -0.000375076 0.004 752.458 -6.92899 
21 1 1 0.022252 -0.00762166 0.00394348 0 0 0 -1.52456e-07 2.69289e-06 -1.47886e-05 -2.05202e-06 7.78945e-06 -1.2299e-05 -0.000558286 -0.000503828 0.000125746 0.004 785.58 -3.71406 
17 1 1 0.0298456 -0.00520719 0.00394886 0 0 0 2.1542e-06 -2.40869e-06 -9.24622e-06 -2.76455e-06 5.59913e-06 -1.22304e-05 0.000163196 0.000659796 -0.00121376 0.004 795.867 -1.6231 
477 1 1 -0.0445832 -0.000710814 0.00396286 0 0 0 -7.81017e-06 5.46217e-07 -6.19172e-06 -5.61227e-06 3.89622e-08 9.5907e-07 -4.33924e-05 -0.00152019 0.000431371 0.004 300.144 0.092664 
140 1 1 -0.0352672 -0.00371828 0.00387249 0 0 0 -9.87099e-06 8.18083e-06 -1.37098e-05 1.25906e-07 -1.71886e-06 -9.24394e-07 -0.00259458 -0.00156213 0.00310353 0.004 302.338 0.940427 
119 1 1 -0.0273891 -0.00269836 0.00396394 0 0 0 -9.96524e-06 9.72599e-06 -1.68974e-05 -2.26451e-06 5.22728e-06 -2.33447e-06 -0.00138331 -0.000102373 -0.00259088 0.004 309.44 2.68887 
207 1 1 -0.0194911 -0.00168731 0.00389518 0 0 0 -6.25233e-06 1.48649e-05 -3.3665e-05 -1.06086e-06 3.2688e-06 -7.43565e-06 -0.00306038 0.000281522 0.00206932 0.004 331.835 5.65355 
69 1 1 -0.0111573 -0.00264555 0.00393015 0 0 0 -6.238e-06 1.26389e-05 -3.0404e-05 4.85552e-07 3.64553e-06 -8.80884e-06 -0.00128104 -0.00130747 0.00153719 0.004 389.583 8.13015 
221 1 1 0.00874799 -0.00448993 0.00393212 0 0 0 4.11281e-06 9.50677e-06 -2.41249e-05 2.79793e-06 4.78845e-06 -1.15225e-05 -0.0039997 -0.000218177 8.87598e-05 0.004 709.731 -7.67351 
457 1 1 0.0163505 -0.00208065 0.00395939 0 0 0 2.84121e-06 6.51858e-06 -1.75748e-05 -1.58659e-06 8.04377e-06 -9.78274e-06 0.00117664 0.000535156 0.00113315 0.004 765.875 -6.58762 
155 1 1 0.0378912 -0.00224686 0.00393701 0 0 0 -6.11261e-06 -1.05152e-05 -1.86513e-06 -6.54392e-06 7.61523e-06 -6.99067e-06 0.0016149 -0.0014551 -0.00538473 0.004 799.179 -0.41827 
665 1 1 0.0459183 -0.00307627 0.00394262 0 0 0 -1.97796e-07 7.91734e-07 -1.41384e-06 4.03289e-06 -2.29849e-06 -3.10628e-06 -0.000590953 -0.000206154 -8.44214e-05 0.004 799.881 -0.0858406 
120 1 1 0.00918485 -0.0371091 0.00876939 0 0 0 -1.01294e-05 -4.84241e-06 -3.53512e-05 3.53609e-06 -2.92171e-06 -1.114e-06 -0.000892606 -0.00298281 0.000491566 0.004 687.828 -7.88618 
9 1 1 -0.0247147 -0.033359 0.00937622 0 0 0 -2.07818e-05 -1.12915e-05 -2.56435e-05 -2.34425e-06 -3.62797e-07 3.75612e-07 -0.00195303 -0.000871463 0.00182741 0.004 311.797 3.5046 
101 1 1 -0.0188615 -0.0277191 0.00955149 0 0 0 -2.20319e-05 -1.41356e-05 -3.77863e-05 4.19555e-06 -4.24517e-06 -2.84125e-06 -0.00219809 -0.00017979 0.00222984 0.004 323.263 5.21962 
48 1 1 0.0221998 -0.0293138 0.00920038 0 0 0 -7.66574e-06 -6.95738e-06 -1.8366e-05 1.55405e-06 6.62058e-07 -6.58978e-07 0.00350734 -0.00053459 0.00123755 0.004 776.754 -4.92058 
75 1 1 0.02936 -0.0261745 0.00787428 0 0 0 -6.42533e-06 -6.48557e-06 -8.55098e-06 -3.07671e-07 4.13814e-06 8.87881e-07 -0.00055293 -0.000855033 -0.00092047 0.004 793.378 -2.17943 
46 1 1 -0.0327913 -0.0205809 0.00958348 0 0 0 -2.29735e-05 -1.12346e-05 -3.46385e-05 6.11998e-06 -7.48916e-06 -3.70487e-06 0.000234541 0.000613603 0.000149457 0.004 303.316 1.32465 
33 1 1 -0.013034 -0.0220249 0.00949574 0 0 0 -1.62225e-05 -3.55337e-08 -4.39426e-05 9.04733e-06 -1.59316e-05 -6.95498e-06 -0.00232314 0.00465263 0.00421474 0.004 350.827 6.49935 
11 1 1 0.02689 -0.0187448 0.00924476 0 0 0 -4.0207e-06 -4.85824e-06 -1.94005e-05 -3.04538e-07 8.04782e-06 -1.02136e-05 -0.00098776 -0.00261862 -0.000683745 0.004 791.541 -2.6089 
71 1 1 -0.0372752 -0.00954696 0.00876624 0 0 0 -1.03381e-05 2.39007e-06 -1.96169e-05 3.59696e-06 -6.2334e-06 -3.89611e-06 0.00310867 -0.000230969 -0.00133443 0.004 300.919 0.467814 
62 1 1 -0.0228082 -0.00771376 0.00814042 0 0 0 -1.43206e-05 1.62381e-05 -3.57018e-05 -3.66362e-06 2.11443e-06 -2.40064e-06 -0.00292108 0.0053772 0.000113872 0.004 317.536 4.06687 
19 1 1 -0.00970676 -0.0090564 0.00849082 0 0 0 -1.82511e-05 1.17915e-05 -6.5035e-05 -6.3985e-07 -2.09487e-06 -1.68615e-05 0.000828799 -0.000365832 0.00111856 0.004 430.059 5.93893 
187 1 1 0.00796692 -0.00988207 0.00975764 0 0 0 7.61332e-06 1.05192e-06 -3.17315e-05 5.28656e-05 -1.87199e-06 -1.77638e-05 0.0056011 0.00257672 -0.000767501 0.004 706.447 -10.3302 
157 1 1 0.0395816 -0.00751951 0.00963126 0 0 0 -8.3928e-06 -1.10717e-05 -3.50705e-07 -1.91294e-06 7.49311e-06 -1.06193e-05 -0.00174514 0.000854635 0.00441398 0.004 799.682 -0.198426 
18 1 1 0.00229106 -0.00404911 0.00852664 0 0 0 -7.122e-06 2.5506e-05 -6.56253e-05 1.51243e-08 5.8215e-06 -2.03073e-05 -0.00266022 -0.00653522 -0.00251874 0.004 582.192 -1.86709 
185 1 1 -0.00531149 -0.045735 0.0104438 0 0 0 -7.0264e-06 -9.73387e-06 -1.53587e-05 4.4429e-06 -2.61038e-06 -1.95261e-06 -0.00185995 -0.00280287 0.00103659 0.004 458.483 5.3071 
83 1 1 0.00256735 -0.0459473 0.0112661 0 0 0 -7.18704e-06 -7.65878e-06 -2.96562e-05 3.58421e-06 -3.5156e-06 -2.53793e-06 -0.00704907 0.00603324 0.00015002 0.004 583.589 -5.11123 
58 1 1 -0.0218568 -0.0405822 0.0112769 0 0 0 -1.40708e-05 -3.85869e-06 -1.32476e-05 9.38474e-07 -1.01908e-06 -4.89252e-07 -0.00200785 -0.000432261 0.00205837 0.004 318.183 4.81572 
105 1 1 -0.013586 -0.043966 0.0108788 0 0 0 6.99619e-06 -6.65182e-06 -1.47743e-05 3.94181e-06 -4.9942e-06 -4.55661e-06 -0.00181919 0.00548012 -0.00173721 0.004 344.7 8.33946 
223 1 1 0.0103957 -0.0448674 0.0106706 0 0 0 -4.74235e-06 -6.62247e-06 -3.2287e-05 2.71383e-06 -1.79734e-06 7.68783e-07 -0.00498111 -0.00604049 0.00138948 0.004 680.903 -8.75239 
217 1 1 0.0179432 -0.0424253 0.0108281 0 0 0 -5.49858e-07 -7.02861e-06 -1.46918e-05 9.52129e-07 -9.29454e-07 5.38031e-07 -0.00155857 -0.00204089 -0.000484961 0.004 742.836 -8.13998 
6 1 1 -0.0162615 -0.0350312 0.0113114 0 0 0 -1.46352e-05 -1.38417e-05 -4.34687e-05 2.56635e-06 -4.58751e-06 -4.70243e-06 0.00068213 0.00839542 -0.00377849 0.004 340.886 6.88369 
151 1 1 -0.00801309 -0.0382603 0.0108115 0 0 0 -3.7953e-06 -1.82005e-05 -3.77886e-05 3.57715e-06 -7.84327e-06 3.47974e-08 0.00178983 -0.000770005 -3.83545e-05 0.004 409.745 7.89671 
2 1 1 0.000443904 -0.038308 0.010271 0 0 0 -1.23507e-05 -1.01706e-05 -4.21362e-05 5.5376e-06 -7.81825e-06 -3.73165e-06 0.0015087 -0.000485182 -0.00198914 0.004 547.695 -0.000190468 
117 1 1 0.0249195 -0.0387267 0.0109177 0 0 0 9.56555e-07 -8.45167e-06 -8.52812e-06 -9.89797e-07 -4.82143e-07 1.90162e-06 0.000146212 0.00060439 -0.00018544 0.004 778.567 -5.04327 
13 1 1 -0.0323455 -0.0327547 0.011537 0 0 0 -1.34619e-05 -8.36388e-06 -1.63467e-05 4.36813e-07 -6.53168e-07 1.66864e-06 -0.0011055 0.000188939 -0.000318069 0.004 304.245 1.70706 
193 1 1 -0.00982582 -0.0305006 0.0107685 0 0 0 -2.1603e-05 -1.44267e-05 -6.79408e-05 4.68724e-06 -8.81489e-06 -6.36471e-06 -0.00862813 -0.0064598 0.00529825 0.004 398.316 8.43471 
47 1 1 -0.0013376 -0.0305434 0.0103848 0 0 0 -2.2163e-05 -1.50799e-05 -5.76443e-05 7.22914e-06 -8.95055e-06 -5.53968e-06 0.0016119 -0.00667597 0.00390978 0.004 524.964 2.3685 
153 1 1 0.00656459 -0.0300231 0.0113663 0 0 0 -1.43183e-05 -8.29338e-06 -5.4772e-05 8.09354e-06 -2.41533e-06 -5.92345e-06 0.00198335 -0.00112115 -0.00145092 0.004 648.289 -6.03675 
41 1 1 0.0148076 -0.0317915 0.0106541 0 0 0 -1.24013e-05 -1.02167e-05 -3.86958e-05 4.77441e-06 -1.26005e-06 -3.82962e-06 8.27537e-05 -0.00213714 5.91302e-05 0.004 740.74 -8.25846 
163 1 1 0.0311565 -0.0339183 0.0111115 0 0 0 -1.71374e-07 -8.02002e-06 -1.07717e-05 -2.04459e-06 1.03492e-06 2.37584e-06 -0.000874519 -0.0011988 0.0011419 0.004 793.349 -2.24877 
214 1 1 -0.0375015 -0.0268266 0.010714 0 0 0 -1.23097e-05 -8.25106e-06 -1.75767e-05 2.68557e-06 -1.36491e-06 2.30807e-07 -0.000438507 0.00346164 -0.000574771 0.004 301.887 0.882932 
210 1 1 0.0364693 -0.0280971 0.0111135 0 0 0 -1.87588e-06 -4.74734e-06 -5.42284e-06 -1.8815e-06 1.58167e-06 8.46856e-07 0.000571868 -0.000742008 0.000408984 0.004 798.107 -0.852406 
108 1 1 -0.0260916 -0.0246404 0.0109304 0 0 0 -2.58713e-05 -2.16762e-05 -4.64594e-05 8.10575e-06 -3.42373e-06 1.00784e-06 0.000409441 -0.000754057 0.00036645 0.004 309.797 2.9149 
40 1 1 -0.00551118 -0.0238697 0.0113286 0 0 0 -1.84374e-05 -3.11735e-06 -6.57831e-05 9.56737e-06 -9.32702e-06 -1.37137e-05 0.0050809 -0.00635361 -0.00540776 0.004 454.439 5.78996 
55 1 1 0.00236203 -0.0232852 0.010825 0 0 0 -1.05679e-05 7.23818e-07 -5.72662e-05 1.02371e-05 -1.12775e-07 -1.51974e-05 -0.00151965 0.00740755 0.00225607 0.004 592.681 -2.61451 
91 1 1 0.0120918 -0.0243837 0.0101857 0 0 0 -8.8872e-06 -9.10724e-06 -4.38556e-05 6.07714e-06 -1.9244e-07 -1.00327e-05 -0.000207142 0.00078267 -0.000650896 0.004 721.915 -8.80282 
112 1 1 0.0192793 -0.0205361 0.0105075 0 0 0 -3.11438e-06 -6.08173e-06 -4.82206e-05 3.91065e-06 8.24903e-06 -1.40237e-05 0.00483638 -0.00162931 -0.000471917 0.004 769.101 -6.25755 
178 1 1 0.0318657 -0.0225254 0.014479 0 0 0 -1.07882e-05 -1.15684e-05 -7.77694e-06 -1.83766e-06 6.3649e-06 -2.19326e-06 0.000904157 -0.00175911 0.000277691 0.004 797.135 -1.18213 
131 1 1 0.0407765 -0.0214683 0.0110513 0 0 0 -2.69267e-06 -3.74524e-06 -1.54116e-06 -6.45525e-07 7.81099e-07 -1.46837e-06 0.000203666 -8.94413e-06 0.000671389 0.004 799.363 -0.357511 
160 1 1 -0.0414721 -0.0199398 0.0108131 0 0 0 -9.37406e-06 -2.57774e-06 -1.10457e-05 2.0362e-06 -1.59089e-06 -8.44563e-07 0.000146586 -0.00131465 -0.000627338 0.004 300.505 0.297047 
43 1 1 -0.0361087 -0.0151005 0.0142597 0 0 0 -2.32596e-05 -8.62191e-06 -4.37753e-05 4.51841e-06 -7.28122e-06 -5.69871e-06 0.000894783 0.00142924 -0.0014294 0.004 301.836 0.787019 
4 1 1 -0.0270343 -0.0151184 0.010074 0 0 0 -2.90434e-05 -1.20127e-05 -4.95542e-05 9.90303e-06 -5.71978e-06 -5.23886e-06 0.001633 0.00403191 -0.000547313 0.004 307.965 2.5045 
104 1 1 -0.020301 -0.0192302 0.0111977 0 0 0 -3.06973e-05 -1.10349e-05 -6.46643e-05 1.23238e-05 -3.11354e-06 -5.98984e-06 -0.0048541 -0.000544572 0.000817781 0.004 322.799 4.83285 
20 1 1 -0.00745486 -0.0162218 0.0110956 0 0 0 -1.39699e-05 7.76367e-06 -7.74942e-05 6.06505e-06 -6.0752e-06 -1.90982e-05 -0.00137078 -0.00625622 0.00452626 0.004 446.595 5.99504 
45 1 1 0.000824965 -0.0164514 0.0146049 0 0 0 -1.66986e-05 2.63688e-05 -9.36234e-05 9.41928e-06 6.03314e-06 -3.10649e-05 -0.00583339 -0.00406335 0.000849267 0.004 563.34 -1.15315 
159 1 1 0.00795152 -0.0177076 0.0113472 0 0 0 -6.80378e-06 -3.14236e-07 -6.71371e-05 8.4964e-06 2.15803e-06 -2.29765e-05 -0.00141022 -0.00290982 -0.00268845 0.004 684.413 -7.20024 
136 1 1 0.034793 -0.0163371 0.0104657 0 0 0 -6.32245e-06 -8.31573e-06 -4.37157e-06 1.57121e-07 7.1434e-06 -9.29158e-06 -0.000933395 -0.000732974 9.6776e-05 0.004 798.362 -0.776801 
177 1 1 -0.0443274 -0.0125289 0.0108104 0 0 0 -6.8516e-06 1.90661e-07 -1.09615e-05 5.18221e-07 -4.49696e-07 -3.10515e-06 -0.000176588 0.000928315 0.000203523 0.004 300.276 0.174517 
139 1 1 -0.016821 -0.0121093 0.0110439 0 0 0 -2.72197e-05 1.83848e-06 -7.48377e-05 6.40885e-06 1.76618e-06 -1.03876e-05 0.00544523 -0.000210576 -0.00108581 0.004 341.779 6.12323 
211 1 1 -0.00209543 -0.0104149 0.0103076 0 0 0 -1.99292e-05 2.62662e-05 -7.97412e-05 -1.4382e-07 2.01557e-06 -2.4939e-05 2.77941e-05 -0.000473179 0.00079437 0.004 518.085 1.7222 
54 1 1 0.0149154 -0.0138958 0.010831 0 0 0 -2.90187e-06 -9.69061e-07 -4.03574e-05 9.93761e-07 1.00967e-05 -1.3787e-05 0.00323231 -0.00384232 0.0014052 0.004 754.328 -7.25507 
84 1 1 0.0232719 -0.011801 0.0106604 0 0 0 2.35448e-07 1.35418e-06 -2.90782e-05 -2.92296e-06 1.37166e-05 -2.06612e-05 0.000954655 0.000754935 -0.000219916 0.004 787.894 -3.50591 
180 1 1 0.0438204 -0.0140997 0.0110465 0 0 0 -6.44315e-07 -2.24327e-06 1.04546e-06 -1.18536e-06 -1.82796e-06 -7.46379e-06 0.00108578 -0.000537968 -0.000601416 0.004 799.84 -0.112191 
103 1 1 0.017444 -0.00636569 0.0105709 0 0 0 1.37188e-06 1.27464e-05 -3.73685e-05 -3.20332e-06 1.78121e-05 -1.83336e-05 -0.00269425 -0.00309221 -0.00164199 0.004 768.962 -6.29432 
156 1 1 0.030889 -0.00946116 0.0106301 0 0 0 -4.35696e-06 -3.75251e-06 -1.52697e-05 -6.18969e-07 1.06834e-05 -2.07002e-05 -0.00101403 -0.00226093 -0.000625984 0.004 796.085 -1.54359 
197 1 1 -0.0457831 -0.0047112 0.0107571 0 0 0 -9.56851e-06 4.26841e-08 -1.09893e-05 -3.97496e-06 8.5684e-07 -1.53701e-06 -0.000173599 0.00077498 0.000721618 0.004 300.136 0.0940679 
87 1 1 -0.0386059 -0.00381152 0.0141381 0 0 0 -1.41089e-05 3.84351e-06 -2.68135e-05 -6.64185e-06 -1.32205e-05 -7.79336e-07 -0.00370011 -0.00241814 1.8578e-05 0.004 300.563 0.307583 
130 1 1 -0.0313597 -0.00387386 0.0107775 0 0 0 -9.03801e-06 6.72122e-06 -3.24829e-05 4.18422e-06 2.35192e-06 -5.70585e-06 0.00677579 0.00268933 -0.000239723 0.004 303.216 1.24384 
604 1 1 -0.0224595 -0.000300916 0.0110796 0 0 0 -1.81996e-05 2.33756e-05 -6.5561e-05 -2.54527e-06 2.27224e-06 -1.08438e-05 0.000883643 -0.00198269 0.000649906 0.004 324.739 4.68369 
146 1 1 -0.0155079 -0.00400732 0.0103914 0 0 0 -1.96131e-05 1.75469e-05 -6.59519e-05 3.0717e-08 2.54428e-06 -1.62481e-05 0.00380087 -0.00240316 -0.00323075 0.004 364.597 6.80931 
57 1 1 -0.00517528 -0.00310616 0.0111956 0 0 0 -1.57944e-05 4.31836e-05 -9.87542e-05 -3.40748e-07 -3.47571e-07 -2.7391e-05 -0.0112689 0.001781 0.00161516 0.004 483.813 4.45192 
493 1 1 0.0116956 -0.000875145 0.0103668 0 0 0 7.46484e-06 2.56551e-05 -5.32677e-05 -3.72096e-06 1.57231e-05 -1.93101e-05 0.00344062 0.00120542 0.00146017 0.004 732.299 -8.46567 
31 1 1 0.0250483 -0.00405422 0.0104603 0 0 0 2.54689e-06 4.20385e-06 -2.75232e-05 -1.88466e-06 1.35767e-05 -2.37632e-05 0.000731491 0.000505865 -0.000603572 0.004 788.263 -3.39266 
588 1 1 0.0325998 -0.00174528 0.0105432 0 0 0 1.72008e-06 -5.9192e-06 -1.36927e-05 -3.43553e-06 1.16501e-05 -2.33723e-05 -3.64322e-05 -0.00283427 -0.00202207 0.004 795.93 -1.56169 
63 1 1 0.045924 -0.00327879 0.0119253 0 0 0 -3.67949e-06 -8.64372e-07 -8.78936e-07 -4.48829e-07 -5.01194e-06 -1.38019e-05 0.00116131 -0.000490198 -0.00149431 0.004 799.799 -0.129267 
107 1 1 -0.00850635 -0.0452731 0.017677 0 0 0 -1.92445e-05 -8.92191e-06 -2.70773e-05 -1.21726e-06 1.96707e-06 -2.03318e-06 -0.00380803 0.00128519 0.00445103 0.004 434.458 7.08153 
222 1 1 -0.00141962 -0.0418101 0.0171129 0 0 0 -2.21851e-05 -1.67129e-05 -5.35626e-05 5.14075e-07 6.27671e-07 2.31227e-06 0.00272881 0.00395351 -0.00554929 0.004 532.332 1.77652 
142 1 1 0.00615861 -0.0401388 0.0154212 0 0 0 -1.85619e-05 -2.30492e-05 -5.93684e-05 2.78215e-06 -3.37459e-06 -6.61404e-07 0.00402252 -0.000753699 0.00227334 0.004 632.502 -5.17782 
172 1 1 0.0116013 -0.0446446 0.0189547 0 0 0 -1.03654e-05 -1.33488e-05 -3.94635e-05 1.32484e-06 2.12175e-06 3.31394e-06 -0.00598179 -0.00269482 0.00337505 0.004 695.279 -8.8497 
109 1 1 0.0204197 -0.0412797 0.0183142 0 0 0 -1.19316e-05 -4.82528e-06 -1.76185e-05 -9.77612e-08 5.98121e-08 3.87233e-06 -0.00132676 -0.00134836 0.00258445 0.004 770.197 -6.35902 
150 1 1 -0.0273272 -0.0370832 0.0158763 0 0 0 -1.41263e-05 -1.51619e-06 -1.52693e-05 2.64903e-06 2.72634e-06 1.42236e-06 -0.00223758 0.00116226 0.000975947 0.004 310.023 3.15185 
38 1 1 -0.0197788 -0.037372 0.0182823 0 0 0 -1.33745e-05 -4.19797e-06 -5.0712e-05 4.55412e-06 6.45746e-06 -2.76828e-06 -0.0039583 0.00722798 -0.00256949 0.004 329.278 5.99464 
199 1 1 -0.0118545 -0.0370266 0.01765 0 0 0 -1.97258e-05 -2.16474e-05 -6.94451e-05 2.18189e-06 -4.99356e-07 4.39692e-07 -0.00179286 -0.00463176 -0.00252264 0.004 363.076 8.26338 
93 1 1 0.0137643 -0.0377759 0.0156808 0 0 0 -1.81262e-05 -1.31188e-05 -4.93226e-05 3.90106e-06 3.49744e-07 4.68097e-07 -0.000791472 -0.00510615 0.00170446 0.004 722.822 -8.50909 
64 1 1 0.0280176 -0.0365092 0.0179286 0 0 0 2.14105e-07 -1.05478e-05 -1.61361e-05 -6.53137e-06 -8.0386e-07 2.11796e-06 -0.000914792 -0.0012724 0.00126566 0.004 792.893 -2.55304 
22 1 1 -0.0327403 -0.0324221 0.0194567 0 0 0 -9.7975e-06 -5.56357e-06 -1.95938e-05 8.52947e-06 2.74868e-06 4.52354e-06 -0.00191868 0.00279876 0.000831671 0.004 303.897 1.56496 
174 1 1 -0.0224319 -0.0302106 0.0162617 0 0 0 -2.18389e-05 -6.58103e-06 -5.24812e-05 7.84984e-06 5.86911e-06 3.61722e-07 -0.00119712 0.00524835 0.00152424 0.004 319.368 4.85715 
32 1 1 -0.00428315 -0.0343967 0.0166775 0 0 0 -2.16656e-05 -8.67356e-06 -7.71622e-05 3.14114e-06 -3.43983e-06 -4.26435e-06 -0.00926416 -0.00123782 0.00317665 0.004 480.591 5.67211 
128 1 1 0.00347454 -0.033132 0.017996 0 0 0 -2.72032e-05 -1.67105e-05 -8.63322e-05 5.49182e-06 -3.08201e-06 -5.36355e-06 -0.00211978 -0.00278501 -0.0038815 0.004 588.725 -1.79396 
88 1 1 0.0113686 -0.0304834 0.0177101 0 0 0 -2.26361e-05 -1.73246e-05 -7.06088e-05 7.47903e-06 1.57904e-06 -9.10844e-06 0.000967651 -0.00183108 0.000451872 0.004 716.101 -8.19508 
137 1 1 0.0208046 -0.0338186 0.0156334 0 0 0 -2.04811e-05 -1.43525e-05 -3.59713e-05 3.8758e-06 3.49012e-06 3.28735e-06 -0.00364208 -0.0086054 0.00245387 0.004 781.04 -5.28605 
154 1 1 0.033982 -0.0311387 0.0180551 0 0 0 -4.00226e-06 -8.51216e-06 -1.11126e-05 -1.68904e-06 2.39559e-07 1.1111e-06 -0.00076108 -0.00197309 0.0016439 0.004 797.281 -1.10987 
52 1 1 -0.031991 -0.0252344 0.0161625 0 0 0 -1.98037e-05 -1.80952e-05 -4.6957e-05 1.30959e-05 1.17559e-07 3.70153e-06 -0.00250139 0.000645677 -0.000681547 0.004 304.214 1.55532 
80 1 1 -0.00960107 -0.0265067 0.0175805 0 0 0 -3.83122e-05 1.44159e-05 -0.000111747 9.63586e-06 2.9092e-06 -1.253e-05 -0.00389355 0.0020693 -0.00277212 0.004 403.21 7.98198 
125 1 1 -0.00117372 -0.0267002 0.0173743 0 0 0 -1.96255e-05 1.60325e-06 -0.000101885 1.56425e-05 1.66296e-06 -1.62768e-05 -0.0120958 0.0133209 -0.000420498 0.004 522.677 3.59396 
72 1 1 0.0179272 -0.0264316 0.0156372 0 0 0 -9.74744e-06 -1.75535e-05 -6.92933e-05 6.88045e-06 5.96264e-06 -1.3379e-05 -0.00180413 0.00323019 -0.00374134 0.004 765.272 -6.82279 
34 1 1 0.0269647 -0.0287251 0.0154183 0 0 0 -6.62474e-06 -1.74271e-05 -2.07051e-05 -1.94837e-06 4.87557e-06 1.69788e-06 0.00198767 0.000562521 0.000726984 0.004 791.681 -2.507 
218 1 1 -0.0395969 -0.0234663 0.0176916 0 0 0 -9.66474e-06 -9.23037e-06 -2.37199e-05 7.33485e-06 1.45495e-06 1.66626e-06 0.000932078 0.0041587 -0.00193605 0.004 300.926 0.468214 
70 1 1 -0.0247176 -0.0230259 0.0185785 0 0 0 -2.88156e-05 -6.79032e-06 -8.02832e-05 1.80661e-05 4.07126e-06 3.42495e-06 -0.00717379 0.00325588 0.00359983 0.004 314.256 3.51343 
132 1 1 -0.0171324 -0.0242635 0.0164744 0 0 0 -3.16135e-05 3.91784e-06 -8.62767e-05 1.21332e-05 6.06141e-06 -4.80934e-06 -0.0038567 0.00252009 0.00203902 0.004 338.41 6.2175 
196 1 1 0.00716639 -0.0237891 0.0170604 0 0 0 4.50695e-07 1.06981e-06 -0.000101126 1.60191e-05 1.00655e-05 -2.55723e-05 -0.00255769 -0.00471409 -0.00625829 0.004 675.948 -6.7054 
362 1 1 0.0243873 -0.0214293 0.0170619 0 0 0 -9.37253e-06 -1.14832e-05 -3.10297e-05 -3.4546e-06 1.28287e-05 -2.18904e-05 -0.00434346 -0.00239482 -0.000875575 0.004 791.813 -2.57467 
49 1 1 0.0387627 -0.0248027 0.0179815 0 0 0 -5.43966e-06 -6.03619e-06 -5.06437e-06 -1.19749e-06 2.67936e-07 3.45377e-07 0.000358256 -0.000895211 0.000214707 0.004 799.133 -0.461632 
173 1 1 -0.0431191 -0.0163148 0.0177078 0 0 0 -8.7579e-06 -2.07081e-06 -2.00964e-05 5.72804e-06 6.27603e-07 -7.7847e-07 -0.000225331 0.00381667 -0.000570143 0.004 300.657 0.340498 
50 1 1 -0.0295065 -0.016766 0.0182811 0 0 0 -3.09349e-05 -1.26245e-05 -7.82986e-05 1.55897e-05 -3.68047e-06 -1.13541e-05 0.00182306 0.0023147 -0.000489012 0.004 306.322 1.94419 
202 1 1 -0.0134619 -0.0172168 0.0161108 0 0 0 -3.37843e-05 -2.60688e-06 -0.000114811 1.43459e-05 4.18147e-06 -1.34683e-05 -0.000512643 -0.000113219 -0.00192508 0.004 371.429 7.37393 
86 1 1 -0.00524878 -0.0199159 0.0183759 0 0 0 -3.00709e-05 2.29468e-05 -0.000128341 1.84819e-05 2.21013e-06 -2.9809e-05 0.0032944 -0.00493591 -0.000237288 0.004 472.797 5.64233 
129 1 1 0.0138596 -0.0196296 0.0162863 0 0 0 1.72266e-06 -1.14905e-05 -7.2782e-05 7.67578e-06 8.29646e-06 -2.58061e-05 -6.05368e-05 0.00201233 0.00119794 0.004 740.279 -7.22318 
82 1 1 0.02914 -0.0151359 0.0159327 0 0 0 -1.12416e-05 -8.53925e-06 -2.18029e-05 2.76696e-06 1.36992e-05 -2.47872e-05 0.000880379 -0.00144342 0.00017865 0.004 796.157 -1.51502 
1 1 1 0.0424682 -0.0178049 0.0178803 0 0 0 -6.41197e-06 -4.63502e-06 -1.84658e-06 7.23954e-07 -5.20763e-07 -4.97172e-06 -0.000187339 -0.000927427 0.000819546 0.004 799.623 -0.228545 
168 1 1 -0.0224799 -0.0136304 0.0164169 0 0 0 -3.28257e-05 1.20315e-06 -9.83364e-05 1.29679e-05 -5.59723e-07 -9.25595e-06 -0.00378008 0.00186042 0.00164795 0.004 320.494 4.44293 
121 1 1 -0.00514908 -0.0120186 0.0174571 0 0 0 -2.88636e-05 3.02967e-05 -0.000127878 9.90229e-06 3.43351e-06 -3.18395e-05 -0.000768093 0.00217718 0.000483312 0.004 490.355 3.30763 
28 1 1 0.00814299 -0.0139815 0.0183181 0 0 0 -2.19233e-05 2.60175e-05 -0.000124105 7.58378e-06 1.92977e-05 -4.15084e-05 -0.00371645 -0.00342948 -0.00393438 0.004 696.555 -9.02671 
42 1 1 0.0200407 -0.0148105 0.0172664 0 0 0 -4.06559e-06 -4.26192e-06 -6.32548e-05 -1.40559e-06 1.62946e-05 -3.81542e-05 -0.000445106 -0.00482106 -2.10221e-05 0.004 777.683 -4.71254 
60 1 1 0.037628 -0.0116471 0.0161722 0 0 0 -9.98375e-06 -5.31984e-06 -1.25313e-06 4.53196e-06 1.20332e-05 -1.80171e-05 -0.00096922 -0.00306211 -0.00229404 0.004 799.411 -0.32832 