ITEM: TIMESTEP
11200
ITEM: NUMBER OF ATOMS
890
ITEM: BOX BOUNDS mm mm mm
-0.05 0.05
-0.05 0.05
0 0.15
ITEM: ATOMS id type type x y z ix iy iz vx vy vz fx fy fz omegax omegay omegaz radius f_Temp[0] f_heatFlux[0] 
59 1 1 -0.000712431 -0.0460985 0.00395518 0 0 0 -0.000501719 -0.000152777 0.0002227 2.38057e-05 -0.000201871 0.000897273 0.0703949 -0.293047 -0.0854121 0.004 300 0 
170 1 1 -0.0173489 -0.0426416 0.00397343 0 0 0 -3.59749e-06 0.000138277 4.60025e-05 -1.60724e-06 1.83996e-05 0.000260429 -0.0383221 0.0690713 -0.0343843 0.004 300 0 
15 1 1 -0.00974958 -0.044964 0.00393436 0 0 0 -0.000729559 0.000412997 -2.27599e-05 -0.00014855 -0.000264771 0.00034506 -0.059315 -0.200312 0.149044 0.004 300 0 
116 1 1 0.00649016 -0.042821 0.00395411 0 0 0 -0.000702687 -0.000805122 0.00162835 0.000903021 -0.000382454 -0.00083471 0.403115 0.0578188 0.107001 0.004 300 0 
158 1 1 0.0143666 -0.043761 0.00389821 0 0 0 -0.000584076 -0.000216708 0.000534305 0.000422433 -0.000789819 -0.00208782 0.0241251 -0.0258141 0.00442925 0.004 300 0 
98 1 1 0.021683 -0.0406507 0.00393869 0 0 0 -0.000280784 -0.000277504 0.000269253 -0.000972607 9.20469e-05 -4.89753e-05 0.0594823 -0.0115358 0.0458001 0.004 300 0 
169 1 1 -0.024431 -0.039066 0.00391586 0 0 0 -6.66966e-05 -7.27034e-05 0.000233631 0.000320839 1.48767e-05 2.04211e-05 0.0589031 0.0396965 0.0832309 0.004 300 0 
89 1 1 -0.0118069 -0.0369257 0.00395597 0 0 0 -0.000117429 0.000241205 0.000652304 -0.00043437 -0.000152866 0.00153679 0.003961 -0.102973 0.114456 0.004 300 0 
152 1 1 -0.00417617 -0.0390195 0.00390729 0 0 0 3.14201e-05 0.000201275 0.00070164 -0.00143638 -0.000836367 0.00159347 0.0335188 0.0234593 -0.107794 0.004 300 0 
23 1 1 0.0153566 -0.0358824 0.00390649 0 0 0 -0.000535744 -0.000517842 0.000555315 -0.000715675 -0.000103568 -0.000855996 0.0682849 -0.0152587 0.0323577 0.004 300 0 
118 1 1 -0.0307533 -0.0342405 0.00392867 0 0 0 -0.000200942 0.000273535 0.000557422 0.000645321 -0.000827168 -0.000170057 -0.064178 -0.0774564 -0.055728 0.004 300 0 
30 1 1 -0.0188761 -0.0333746 0.00395496 0 0 0 -0.000399453 -0.000199175 0.000383567 0.000692601 -0.000138563 0.00135412 0.135134 -0.0565075 0.0386534 0.004 300 0 
215 1 1 -0.00603735 -0.0313233 0.00390786 0 0 0 0.00100263 0.000427375 0.000459331 -0.000557584 0.000555881 0.00140818 -0.164116 0.485856 -0.0213598 0.004 300 0 
74 1 1 0.00184839 -0.0338173 0.00390795 0 0 0 -0.000212877 -0.00010304 0.000988401 -0.00170573 -2.10366e-06 -0.000832032 0.114538 0.0734009 -0.220874 0.004 300 0 
24 1 1 0.00918683 -0.0308324 0.00391315 0 0 0 -0.000615961 -0.000376266 0.00067846 0.000107397 0.000766359 -0.00119756 -0.0131107 -0.0674854 0.153709 0.004 300 0 
198 1 1 0.0258966 -0.0339116 0.00395573 0 0 0 0.000342327 -0.000184711 3.34776e-05 -0.000999525 -0.00060197 0.00114866 -0.225457 -0.231035 -0.0175199 0.004 300 0 
161 1 1 0.0335105 -0.0316329 0.00391696 0 0 0 4.07065e-05 0.000296064 2.0572e-05 -0.000939485 -0.000239748 0.00123516 -0.0992489 0.0621237 -0.0101957 0.004 300 0 
8 1 1 -0.0322738 -0.0264209 0.00398437 0 0 0 0.000183697 0.000314754 0.000283846 0.000945949 -7.26562e-05 0.000610031 -0.001478 0.0840419 -0.253839 0.004 300 0 
12 1 1 -0.0244169 -0.027705 0.00386236 0 0 0 -0.00038051 1.98392e-05 0.000627087 0.00144849 0.000319865 0.000521645 0.0667707 -0.11417 -0.0992138 0.004 300 0 
188 1 1 -0.0131766 -0.0277778 0.00396692 0 0 0 0.000321692 -0.000453931 0.00104677 -0.00028988 -4.21054e-05 0.00255168 0.0506664 -0.0329985 0.272101 0.004 300 0 
77 1 1 -9.77091e-05 -0.0260805 0.00390248 0 0 0 -0.000702666 0.000487359 -0.00144509 -0.00154936 0.00117789 0.000127636 -0.323979 -0.196442 0.173587 0.004 300 0 
113 1 1 0.0165746 -0.0280168 0.0038845 0 0 0 -0.000228661 -0.00032186 0.000394495 -0.000322639 -0.000246031 -0.000448927 0.0189082 0.0399155 -0.196535 0.004 300 0 
183 1 1 0.0384406 -0.0253942 0.00393823 0 0 0 7.58836e-05 0.000270919 -0.000147924 -0.000331826 -0.000128398 0.000344433 0.00210676 0.0180486 -0.188155 0.004 300 0 
162 1 1 -0.0396321 -0.0234167 0.00390817 0 0 0 0.000473243 0.000160129 0.000578021 -2.16769e-05 -0.000332176 -0.000466262 -0.101779 0.122204 0.204819 0.004 300 0 
53 1 1 -0.0272138 -0.0202557 0.00395324 0 0 0 -0.00045417 0.000907813 0.000464244 0.00075602 0.000388135 0.000999484 -0.112594 -0.0476168 0.684747 0.004 300 0 
148 1 1 -0.018763 -0.0220721 0.00393678 0 0 0 -0.000241279 -0.000457512 0.000629367 0.000787484 -0.000513194 0.00136113 0.059039 -0.0961149 -0.140954 0.004 300 0 
195 1 1 -0.00728616 -0.021556 0.0039476 0 0 0 0.000413083 -0.000894827 0.000544968 -0.00309292 -0.00177089 0.00070709 0.119555 0.0885632 0.292916 0.004 300 0 
179 1 1 0.00733031 -0.023108 0.00394066 0 0 0 0.00085935 0.000316485 0.000368831 -0.000670327 0.001049 -0.000437784 -0.0905888 0.147825 0.218254 0.004 300 0 
95 1 1 0.0148449 -0.0203069 0.00392971 0 0 0 0.000558991 0.000159281 -9.49107e-05 0.000530657 -3.60744e-05 0.000189952 -0.110164 0.0893203 0.0442343 0.004 300 0 
76 1 1 0.0230089 -0.0233015 0.00396609 0 0 0 0.00031653 0.000387332 0.000575269 -0.000860383 -0.000317825 3.92791e-05 -0.132577 0.179244 0.0849091 0.004 300 0 
100 1 1 0.0325743 -0.020079 0.00388959 0 0 0 -9.56768e-05 0.000616282 -4.13116e-05 -0.000966866 -0.000937379 4.08176e-05 -0.180863 0.0417344 0.273869 0.004 300 0 
65 1 1 -0.0430768 -0.0162788 0.00393322 0 0 0 0.000443887 7.08737e-05 0.000177301 -7.61729e-05 -0.000750963 0.000190229 -0.0390087 0.0655821 -0.126895 0.004 300 0 
102 1 1 -0.0351649 -0.0154991 0.00394219 0 0 0 0.000764314 -0.000162144 0.000151301 -0.000478899 -0.000516497 0.000424899 0.202835 0.149391 0.151183 0.004 300 0 
213 1 1 -0.0132661 -0.016275 0.00397332 0 0 0 0.000236908 -0.000862383 0.000226371 4.47165e-05 -0.000534822 0.00100584 0.00524089 -0.00438622 -0.135007 0.004 300 0 
10 1 1 0.00112644 -0.0182486 0.00474115 0 0 0 -7.70747e-05 8.63582e-05 -0.00125102 -0.000129065 0.00118743 -0.000248556 0.164655 -0.643281 -0.121805 0.004 300 0 
5 1 1 0.00878914 -0.0152589 0.00390755 0 0 0 0.000474785 0.000283145 -0.000500366 0.000347368 0.0014183 0.000128868 -0.0948038 0.0680819 -0.029246 0.004 300 0 
96 1 1 0.0211628 -0.0155208 0.00395535 0 0 0 0.0005151 0.000375921 -3.56604e-05 0.000489842 -0.000783472 -0.000309572 0.00500435 -0.118049 -0.0313414 0.004 300 0 
167 1 1 0.0421838 -0.0183847 0.0039236 0 0 0 0.000451876 7.68875e-05 -0.000262862 -0.000236928 -4.47112e-05 0.000451207 0.121137 0.02361 0.109078 0.004 300 0 
124 1 1 -0.0290053 -0.0104719 0.00394436 0 0 0 0.000640743 8.98644e-05 -0.000281654 -0.000570475 0.0012483 0.00138551 0.116637 0.262185 0.0232891 0.004 300 0 
220 1 1 -0.0217782 -0.0144647 0.00398126 0 0 0 -0.00158387 0.00185617 0.000457523 0.00139006 -0.000544568 0.000176945 -0.472142 -0.531782 -0.48432 0.004 300 0 
144 1 1 -0.00537091 -0.0138012 0.00388113 0 0 0 0.000229217 -0.000815396 -0.000367934 -0.000729622 0.000262965 0.000170422 0.197952 0.187839 0.125933 0.004 300 0 
26 1 1 0.002545 -0.0104647 0.00391057 0 0 0 0.000535847 -0.000278453 -0.000290796 -0.000813977 0.000517936 7.27604e-05 0.0260508 -0.085931 0.0610927 0.004 300 0 
194 1 1 0.0287327 -0.0131018 0.00393258 0 0 0 4.17051e-05 0.000637873 0.000318927 0.000419038 -7.46268e-05 1.07754e-05 -0.100809 0.000786813 0.114706 0.004 300 0 
37 1 1 0.0366649 -0.0122304 0.00393705 0 0 0 -0.000637804 0.000858987 -2.32234e-07 0.000868944 -0.000150257 -0.000430806 -0.193621 -0.176007 -0.347137 0.004 300 0 
219 1 1 0.0447237 -0.0108856 0.00390383 0 0 0 0.000143524 0.000222439 0.00015924 -0.000560309 0.000807059 0.000142584 0.00510473 0.0253106 -0.0395886 0.004 300 0 
636 1 1 -0.0452006 -0.00864131 0.00392054 0 0 0 0.000257498 0.000223518 0.000209849 0.000982784 -9.67141e-05 0.000370172 -0.0228642 0.0534931 0.156932 0.004 300 0 
39 1 1 -0.0161569 -0.00885337 0.00388685 0 0 0 0.000842008 -0.000363889 0.0003109 1.3804e-05 -0.00046796 -0.000454416 0.0415218 0.219817 -0.238718 0.004 300 0 
171 1 1 -0.00396929 -0.0059778 0.0039224 0 0 0 0.000347801 -0.000815707 -8.46056e-05 -0.000887919 -0.000909395 0.000795995 0.0935502 0.0801102 0.030024 0.004 300 0 
200 1 1 0.014619 -0.00985933 0.00396594 0 0 0 0.000373789 -4.21599e-05 -0.0003277 7.1388e-05 0.000798984 -0.000618119 -0.0914288 -0.154787 -0.00355789 0.004 300 0 
21 1 1 0.0222449 -0.0076162 0.00394164 0 0 0 0.000140601 0.000288806 0.000177066 -0.00028686 -0.00024802 -0.000289708 -0.0348698 0.0280954 0.132969 0.004 300 0 
17 1 1 0.0298478 -0.00520783 0.00394956 0 0 0 -0.000285359 0.000353027 0.000450849 0.000132866 -0.000237526 -0.000831804 -0.0611515 -0.121563 -0.137578 0.004 300 0 
477 1 1 -0.0445932 -0.000710598 0.00396445 0 0 0 -1.45615e-05 0.000270948 0.00022182 0.00173194 0.000297061 -0.000985461 -0.00259032 -0.00267783 -0.0154078 0.004 300 0 
140 1 1 -0.0352695 -0.00371419 0.00387061 0 0 0 7.40562e-05 -0.000246873 0.000386807 0.000321384 0.000835798 0.000609389 0.0345358 0.13117 0.265514 0.004 300 0 
119 1 1 -0.0273938 -0.00269514 0.00396133 0 0 0 0.000619511 0.00010243 -0.000402458 0.000821881 -0.000544447 0.00133307 -0.112986 0.0221422 -0.195405 0.004 300 0 
207 1 1 -0.0194975 -0.001689 0.00389186 0 0 0 0.000391079 0.000161118 -0.000443637 0.000424083 0.000567778 0.000420884 -0.200788 0.0492242 0.302392 0.004 300 0 
69 1 1 -0.0111677 -0.0026474 0.00392839 0 0 0 0.000801289 -0.000297164 5.02067e-05 -0.000814055 0.000419131 0.000505989 0.0100072 0.111374 -0.0558316 0.004 300 0 
221 1 1 0.00874928 -0.00446528 0.00393146 0 0 0 -2.52089e-05 -0.000582654 -0.000224495 0.000137887 7.31057e-05 -0.000474527 0.233842 -0.00601562 -0.0356176 0.004 300 0 
457 1 1 0.0163637 -0.00207712 0.00395727 0 0 0 -0.000238851 7.22796e-05 -0.000368332 0.000376367 5.69466e-05 -0.000758511 0.0118457 -0.0562577 0.157875 0.004 300 0 
155 1 1 0.0378932 -0.00225156 0.00393935 0 0 0 -0.00028237 0.000538037 -4.91254e-05 -0.000169555 0.000436152 -5.99864e-05 -0.0352204 -0.0547588 0.190609 0.004 300 0 
665 1 1 0.0459182 -0.00309147 0.00394373 0 0 0 -0.000311772 0.000534976 2.7159e-05 -0.00078141 0.00135692 -3.48583e-05 -0.104933 -0.0597352 0.200696 0.004 300 0 
120 1 1 0.00918792 -0.0371096 0.00875403 0 0 0 3.65486e-05 -0.00062508 0.00199374 0.000396053 -0.000581442 -0.000557323 -0.13622 0.288579 0.00542519 0.004 300 0 
9 1 1 -0.0247092 -0.0333592 0.00938238 0 0 0 6.62506e-05 -0.000132854 0.000498109 0.000886433 -0.00031098 0.000173413 -0.118712 0.244723 0.0805392 0.004 300 0 
101 1 1 -0.0188683 -0.027721 0.00955426 0 0 0 0.000238902 -0.000515069 0.00105631 0.00126838 0.000417792 0.00222668 -0.0384291 0.272307 -0.0186395 0.004 300 0 
48 1 1 0.0221945 -0.0292735 0.00923392 0 0 0 3.84124e-05 -0.000551066 -0.000481232 -0.000509426 -1.27541e-05 0.000112028 0.18223 0.178094 0.228886 0.004 300 0 
75 1 1 0.0293606 -0.026174 0.00785172 0 0 0 -1.60641e-05 0.000533325 0.00027428 -0.00165277 -0.000677333 0.00122538 0.22769 -0.153233 -0.071599 0.004 300 0 
46 1 1 -0.0328118 -0.0205705 0.00957682 0 0 0 0.0010283 0.00087285 0.00157092 0.000775214 -2.02443e-06 0.000326119 -0.767725 -0.125926 -0.167425 0.004 300 0 
33 1 1 -0.0130373 -0.0220238 0.00949365 0 0 0 -7.8073e-05 -0.000451054 0.00107982 -0.0011503 -0.00106448 0.00289208 -0.123502 0.129878 0.101033 0.004 300 0 
11 1 1 0.0268996 -0.0187463 0.00923644 0 0 0 0.000613269 0.000968417 0.000904702 -7.84886e-05 -0.000530341 0.000388082 -0.132622 0.28372 -0.0769401 0.004 300 0 
71 1 1 -0.0372783 -0.00953702 0.00877551 0 0 0 0.000525879 -4.33616e-06 0.00119392 -0.00102816 0.00232286 0.000315238 -0.173315 -0.0131836 -0.108043 0.004 300 0 
62 1 1 -0.0228139 -0.00770971 0.00813899 0 0 0 0.000918323 0.000131868 -0.000577478 0.000285847 -0.000342904 0.00168902 0.0358625 -0.065554 0.177757 0.004 300 0 
19 1 1 -0.00972183 -0.00904923 0.0084929 0 0 0 0.000290996 -0.00146646 -0.00010612 -0.000608688 0.000457605 0.000190965 -0.00353514 -0.219498 -0.0284508 0.004 300 0 
187 1 1 0.00796927 -0.00986679 0.0097476 0 0 0 0.000414174 0.000372056 -0.000213735 0.000555882 0.0015471 -0.00143572 -0.320556 0.237616 -0.0450528 0.004 300 0 
157 1 1 0.0395754 -0.00752366 0.00963893 0 0 0 -0.000131211 0.000726966 -0.000311318 0.000234282 9.90182e-05 -0.000412797 -0.0162757 0.0600362 0.0290527 0.004 300 0 
18 1 1 0.00229479 -0.00405737 0.00853804 0 0 0 -0.000384061 -2.83686e-05 -0.000813956 -0.00011166 0.000133848 -0.000288909 -0.29944 -0.140362 0.0995802 0.004 300 0 
185 1 1 -0.00530299 -0.045737 0.0104397 0 0 0 -0.000505579 5.51588e-05 0.000192029 -0.000130253 0.00045978 0.00171036 0.166822 0.362901 -0.129942 0.004 300 0 
83 1 1 0.00257579 -0.0459484 0.0112483 0 0 0 -0.0013195 -0.000188787 0.00158716 0.000295963 -0.000161938 0.00627886 -0.110899 -0.799762 0.106792 0.004 300 0 
58 1 1 -0.0218532 -0.0405852 0.0112744 0 0 0 -0.000451913 -0.000236438 0.00100807 0.00105626 0.000644885 8.9699e-05 0.079815 -0.387701 0.0589737 0.004 300 0 
105 1 1 -0.0135823 -0.0439673 0.0108779 0 0 0 0.00149892 -0.000344066 0.000602081 -0.00080513 0.000267543 0.00152778 0.229902 0.211853 -0.225865 0.004 300 0 
223 1 1 0.0104022 -0.04487 0.0106583 0 0 0 -0.000674556 -7.4843e-05 0.00214412 0.00132441 0.000366868 0.000460512 0.157144 0.424729 -0.0221567 0.004 300 0 
217 1 1 0.0179438 -0.0424265 0.0108325 0 0 0 -0.000260252 -0.000252086 0.000498074 0.000644309 -0.000334227 -0.00160189 0.00215341 0.0640936 0.00183237 0.004 300 0 
6 1 1 -0.0162557 -0.0350323 0.0113182 0 0 0 0.000208778 -0.00079439 -0.000330078 0.000885709 0.000526169 0.00397398 0.0135251 1.01921 -0.263246 0.004 300 0 
151 1 1 -0.0080041 -0.0382655 0.0108152 0 0 0 0.000673515 0.000712848 0.00152617 -0.000674996 0.000630558 0.00291949 -0.0590164 0.15682 0.00177653 0.004 300 0 
2 1 1 0.000457357 -0.0383066 0.0102742 0 0 0 -0.000524344 0.00101181 0.00193791 0.000306054 -0.000782466 0.00110852 -0.522741 -0.0660799 -0.00455794 0.004 300 0 
117 1 1 0.0249214 -0.0387384 0.0109181 0 0 0 -7.12756e-05 -0.000319446 -7.21069e-05 -0.000588191 -0.00135188 0.00112881 -0.0679519 0.144565 -0.0286536 0.004 300 0 
13 1 1 -0.032341 -0.0327571 0.011543 0 0 0 0.000524833 0.000453429 0.00120228 0.00078368 -0.000139043 -0.000632859 0.0523727 0.169059 -0.164777 0.004 300 0 
193 1 1 -0.00981472 -0.030507 0.0107781 0 0 0 -0.000515283 -3.5413e-05 -0.000100388 0.000201447 0.00108026 0.00380275 0.0628066 -1.08144 0.441207 0.004 300 0 
47 1 1 -0.00139163 -0.0305631 0.0103715 0 0 0 0.00143419 0.00026225 0.00200799 -0.00279305 -0.0013822 -0.000823096 -0.345446 0.531679 0.653924 0.004 300 0 
153 1 1 0.00650609 -0.0300136 0.0113192 0 0 0 0.00245741 0.00120581 0.00145544 0.00059771 -0.001619 -0.0014768 -0.982493 0.199521 -0.600488 0.004 300 0 
41 1 1 0.014803 -0.0317928 0.0106359 0 0 0 0.000346945 -0.00043958 0.000611359 0.00137685 -0.000590177 -0.00079869 -0.0630112 0.235148 -0.103804 0.004 300 0 
163 1 1 0.0311431 -0.0339201 0.0111369 0 0 0 -0.000180565 -0.000491959 -0.000197849 -0.000605443 -0.00147485 0.00139873 0.212848 -0.0907684 0.103508 0.004 300 0 
214 1 1 -0.0375007 -0.0268299 0.0107116 0 0 0 0.000389202 0.000768733 0.00161384 0.000259211 -0.000328515 -0.00104718 0.349738 -0.356885 0.132767 0.004 300 0 
210 1 1 0.0364606 -0.0281033 0.0111216 0 0 0 -0.000357037 -4.6763e-05 -0.000232781 -0.000933342 -4.54545e-05 0.00105633 -0.105564 -0.00975991 0.0762834 0.004 300 0 
108 1 1 -0.0261094 -0.024631 0.0109132 0 0 0 0.000214595 -0.00119856 0.00158204 -0.000253527 -0.000276481 -0.00154356 0.494691 0.119298 -0.387982 0.004 300 0 
40 1 1 -0.00551513 -0.0238652 0.0113379 0 0 0 0.000210653 -0.000956965 -0.000233284 -0.00185073 0.00229278 0.000500724 0.0022265 -0.112136 -0.642853 0.004 300 0 
55 1 1 0.00235899 -0.0232472 0.010834 0 0 0 0.00126165 -0.000809582 -0.00410064 -0.00197208 0.00179414 0.00129637 1.03119 1.22504 0.531944 0.004 300 0 
91 1 1 0.0120658 -0.0243888 0.0101681 0 0 0 0.0014145 0.000927113 0.000338512 0.000761239 -0.000508229 -0.00096319 -0.162756 0.0621194 -0.250439 0.004 300 0 
112 1 1 0.0192973 -0.0205533 0.0104774 0 0 0 -2.06595e-05 0.0010102 0.000561863 0.00104364 0.000210957 0.000331073 0.0749322 -0.360394 0.00291127 0.004 300 0 
178 1 1 0.0318285 -0.0225292 0.0144683 0 0 0 0.0023676 -0.000351639 0.000308516 2.11084e-06 0.000201993 0.00079697 0.202832 0.660712 0.141837 0.004 300 0 
131 1 1 0.0407701 -0.0214827 0.0110549 0 0 0 -0.000103856 0.000109586 -0.000753779 -0.000292673 5.92561e-05 0.000535699 -0.100866 -0.196501 -0.102157 0.004 300 0 
160 1 1 -0.0414728 -0.0199376 0.0108132 0 0 0 0.000110562 6.03418e-05 0.000518301 -0.000727112 -0.000180326 -0.000651096 -0.0982315 -0.187344 0.0524024 0.004 300 0 
43 1 1 -0.0361131 -0.0150931 0.0142695 0 0 0 -0.000401719 0.000372284 8.00415e-05 0.00100929 0.0021284 -0.00181735 0.373498 -0.114644 -0.015434 0.004 300 0 
4 1 1 -0.0270437 -0.0151217 0.0100709 0 0 0 0.000436886 0.00154281 0.000603461 0.00135194 0.000178529 0.00207186 -0.561015 -0.648031 0.248844 0.004 300 0 
104 1 1 -0.0203093 -0.0192342 0.0111927 0 0 0 -0.000124391 -0.000644974 0.00150871 0.000840162 -0.0023204 0.00159927 0.0296261 0.357134 0.524892 0.004 300 0 
20 1 1 -0.00748969 -0.0162267 0.0110793 0 0 0 0.00154184 -0.00167872 0.00050526 -0.00136948 0.00216254 0.000426295 -0.0298393 0.35824 0.254152 0.004 300 0 
45 1 1 0.000834353 -0.0164151 0.0146199 0 0 0 -0.00258367 -0.00216157 -0.00218705 0.000686309 0.00150211 0.000285899 -0.526039 0.19695 0.674521 0.004 300 0 
159 1 1 0.00796632 -0.0176814 0.0113761 0 0 0 -0.000268765 0.000999454 -0.00185974 0.000406915 0.00166926 0.000399773 0.031391 -0.391518 0.469197 0.004 300 0 
136 1 1 0.0348011 -0.016335 0.0104822 0 0 0 -0.000239094 0.000614798 0.000174507 -0.00012002 -0.000149789 -0.000216358 0.2381 0.461527 0.0693724 0.004 300 0 
177 1 1 -0.0443289 -0.0125265 0.0108172 0 0 0 -0.000249801 0.000140975 0.000371839 0.000648458 -0.000224963 -0.000235365 0.160878 -0.302466 0.0417497 0.004 300 0 
139 1 1 -0.016835 -0.0121139 0.0110354 0 0 0 -0.000185303 -0.000376779 0.001234 0.000267001 -0.000476655 -0.000413166 -0.151234 -0.299007 -0.435356 0.004 300 0 
211 1 1 -0.00211304 -0.0104138 0.010316 0 0 0 0.00013221 -0.000787876 -0.000593385 -0.000757684 0.000944407 0.000326176 0.136644 0.106248 0.127503 0.004 300 0 
54 1 1 0.0149441 -0.0139032 0.010824 0 0 0 -0.000297347 0.000885172 -0.000132407 0.000923506 0.000141355 -0.000608517 -0.00793566 -0.126382 0.0439706 0.004 300 0 
84 1 1 0.0232874 -0.0118077 0.0106571 0 0 0 -0.00137132 0.000142094 0.000993655 6.46686e-05 -0.000261528 -3.50386e-05 0.171161 -0.503792 0.159093 0.004 300 0 
180 1 1 0.0438124 -0.0141168 0.0110337 0 0 0 6.38667e-05 0.000184826 -2.5393e-05 -9.61141e-05 0.00121138 0.000370433 0.0877049 -0.0530504 0.0186212 0.004 300 0 
103 1 1 0.0174664 -0.00637074 0.0105665 0 0 0 -0.00029227 0.000979387 -0.000551231 0.000446388 0.000450338 -0.000556855 -0.208922 -0.0127099 0.0216161 0.004 300 0 
156 1 1 0.0308977 -0.00945806 0.0106328 0 0 0 -0.00059027 0.000683708 0.00139258 0.00085523 0.000234004 -0.000608639 -0.215681 0.311617 -0.0775071 0.004 300 0 
197 1 1 -0.0457841 -0.00470843 0.0107628 0 0 0 0.000440211 0.000240499 0.000760115 0.00265601 -0.000194939 0.000382776 0.0229036 0.0428078 -0.111845 0.004 300 0 
87 1 1 -0.0386077 -0.00379384 0.0141343 0 0 0 0.00193979 0.000455019 0.00176387 0.000479297 0.000814313 0.000955224 0.0846 0.277582 0.00552905 0.004 300 0 
130 1 1 -0.0313629 -0.00386526 0.0107718 0 0 0 0.00144614 -0.00101547 -0.000754165 0.000566265 -8.43832e-05 0.00216252 0.551171 0.224577 0.462614 0.004 300 0 
604 1 1 -0.0224692 -0.000295461 0.0110732 0 0 0 0.00064118 0.000140299 -0.0006821 -0.000250914 0.000141737 1.589e-05 0.131679 0.205384 0.0398049 0.004 300 0 
146 1 1 -0.0155183 -0.00399053 0.010391 0 0 0 0.000405567 -0.000808056 -0.00111954 -0.000552176 -2.59288e-05 0.000197532 0.235898 -0.276503 -0.0996863 0.004 300 0 
57 1 1 -0.00518394 -0.00310532 0.0111982 0 0 0 4.11244e-05 6.87233e-05 -0.000966686 -9.065e-05 0.000530875 -0.00188027 -0.461056 -0.0881503 -0.0321084 0.004 300 0 
493 1 1 0.0117406 -0.000864713 0.0103497 0 0 0 -0.000391159 0.000589797 -0.00096859 0.000776073 -0.00118914 -0.000984843 -0.693548 0.649056 -0.183027 0.004 300 0 
31 1 1 0.0250661 -0.00405264 0.0104428 0 0 0 -0.000352997 0.000616504 0.000395002 -0.000299444 -4.14525e-05 -0.000745988 -0.0625506 -0.206389 -0.0753289 0.004 300 0 
588 1 1 0.0326053 -0.00174053 0.0105414 0 0 0 -0.000368255 0.000902525 0.000333449 -0.000492328 0.000320395 -0.00125867 -0.108272 0.130457 0.140678 0.004 300 0 
63 1 1 0.0459264 -0.0032979 0.011928 0 0 0 -0.000423917 0.0006688 -0.000121831 -0.00037694 0.00119075 0.000182566 0.254016 -0.0133538 -0.0330871 0.004 300 0 
107 1 1 -0.00845523 -0.0452785 0.0176892 0 0 0 0.000527576 -0.000787793 0.00133972 0.00224759 0.000217084 0.00302527 0.329194 -0.0904081 -0.131823 0.004 300 0 
222 1 1 -0.00136822 -0.041804 0.0171301 0 0 0 0.000121482 0.00115319 0.00283671 -0.00103826 0.00318069 0.00404808 0.373517 -0.0529509 0.595934 0.004 300 0 
142 1 1 0.00618995 -0.0401445 0.0154077 0 0 0 -0.000164174 0.00150453 0.00275468 -0.000430552 -0.00227872 0.002655 -0.347524 -0.0108866 -0.576887 0.004 300 0 
172 1 1 0.0116353 -0.0446225 0.0190007 0 0 0 -0.000852027 -0.000399915 0.000844386 -0.00349932 0.000863332 0.00228221 0.214058 0.0963967 0.198542 0.004 300 0 
109 1 1 0.020391 -0.0412997 0.0183402 0 0 0 0.000390136 -0.000107087 -1.04775e-05 0.000304456 -0.000401097 -0.000534071 0.194945 -0.207322 0.0216593 0.004 300 0 
150 1 1 -0.0273225 -0.0370849 0.0158821 0 0 0 -0.000159326 -0.000263717 0.00109175 0.00119302 -0.000296004 -1.26166e-05 0.142234 -0.376887 -0.0461558 0.004 300 0 
38 1 1 -0.0197621 -0.0373674 0.0182581 0 0 0 -0.000198481 -0.00026252 0.00124157 0.00137713 -0.00205311 0.00138465 -0.696292 0.547192 -0.0324024 0.004 300 0 
199 1 1 -0.011833 -0.0370414 0.0176599 0 0 0 -0.00117912 0.000408869 0.0012386 0.00325057 0.000634789 0.00402363 0.0556829 -0.637584 0.180481 0.004 300 0 
93 1 1 0.0137747 -0.0377621 0.0156924 0 0 0 3.26829e-07 -0.000372465 0.00112196 -0.00173187 0.0020744 0.000253977 0.0306618 0.00691111 -0.073737 0.004 300 0 
64 1 1 0.0279645 -0.0365245 0.0179568 0 0 0 -0.000708922 -0.00050761 -0.000594881 -1.88862e-05 -0.00248519 0.00371473 -0.093299 -0.0409225 -0.0114114 0.004 300 0 
22 1 1 -0.0327419 -0.0324251 0.0194678 0 0 0 -0.000357054 0.000237066 0.00185367 0.000228316 -0.000396921 -0.00175613 0.0481686 -0.623159 0.0975758 0.004 300 0 
174 1 1 -0.0224363 -0.0302056 0.0162727 0 0 0 -0.000316374 -0.000381861 0.000111759 0.00133825 -0.00133668 0.000917331 0.19148 -0.329516 0.0140865 0.004 300 0 
32 1 1 -0.00427726 -0.034405 0.0166977 0 0 0 -0.000234812 0.000184467 0.00336617 -0.00341168 -0.000230207 0.00193311 0.222197 -0.905872 -0.665042 0.004 300 0 
128 1 1 0.00349629 -0.0331412 0.0179703 0 0 0 0.000326839 0.00291043 0.00127045 -0.00139654 8.49584e-07 0.000853021 0.67132 -0.826896 0.0855657 0.004 300 0 
88 1 1 0.0113205 -0.0304649 0.0176377 0 0 0 0.00210698 0.000776234 0.000657031 0.00058437 0.00241364 0.000730947 0.0511186 -0.0920199 -0.856376 0.004 300 0 
137 1 1 0.0207428 -0.0338681 0.0155803 0 0 0 2.83677e-05 0.000194925 -9.97881e-05 -0.00143047 -0.00121054 0.00168685 -0.27973 0.0577336 0.173484 0.004 300 0 
154 1 1 0.0339848 -0.0311453 0.0180564 0 0 0 -0.000326021 -0.000312815 -0.00041315 -0.000550024 -0.000275337 0.000618453 0.0528442 -0.105656 0.057323 0.004 300 0 
52 1 1 -0.031993 -0.0252438 0.0161618 0 0 0 0.000438087 0.000193098 0.00167521 -6.75715e-05 -0.00203453 -0.00149347 -0.162771 0.158983 -0.198851 0.004 300 0 
80 1 1 -0.00960344 -0.0265207 0.017596 0 0 0 -0.00184055 0.000550603 -0.000958549 -0.00131732 0.000391415 0.00296732 -0.124627 0.920087 -0.192638 0.004 300 0 
125 1 1 -0.00113009 -0.0266915 0.0173589 0 0 0 0.00365166 0.00303282 -0.00568515 -0.00210916 0.0038931 0.00365439 -0.781258 1.11931 1.18464 0.004 300 0 
72 1 1 0.0179686 -0.0264545 0.015589 0 0 0 -0.000330878 0.000366628 -0.000164464 -0.00172348 -0.000441319 0.000918818 0.16486 0.404119 -0.11076 0.004 300 0 
34 1 1 0.0269469 -0.0287371 0.0154773 0 0 0 0.00091712 0.00122711 -0.00189228 -0.000266152 -0.000279433 0.000769948 -1.10755 0.0741529 -0.755734 0.004 300 0 
218 1 1 -0.039597 -0.0234633 0.0176891 0 0 0 -0.000253252 0.000105813 0.00113824 -0.000257119 -4.92065e-05 -0.00205361 0.124546 -0.305308 0.337349 0.004 300 0 
70 1 1 -0.0247232 -0.0230116 0.0185562 0 0 0 9.72557e-05 -0.000670625 0.000968725 0.00056552 -0.000163732 -0.00216917 -0.664557 -0.108342 -0.243855 0.004 300 0 
132 1 1 -0.017133 -0.0242591 0.016475 0 0 0 -5.789e-05 -0.000390765 0.00120073 0.00237009 0.00121564 4.63465e-05 -0.129471 -0.396224 -0.231477 0.004 300 0 
196 1 1 0.00716608 -0.0237376 0.0170784 0 0 0 0.00092841 0.000673622 -0.00610812 0.000232567 -5.10603e-05 0.000855574 -0.531466 -1.05963 0.721904 0.004 300 0 
362 1 1 0.0243854 -0.0214342 0.0171685 0 0 0 0.00113823 0.000738228 -9.93365e-05 0.000683636 0.00116309 0.00123486 1.36645 0.837694 0.9148 0.004 300 0 
49 1 1 0.0387636 -0.0248133 0.0179925 0 0 0 0.000150606 -0.000168196 -0.000824235 -0.000902602 0.000152423 0.000487443 0.128121 0.387711 -0.0776029 0.004 300 0 
173 1 1 -0.0431207 -0.0163127 0.0177188 0 0 0 -0.000849899 -0.000456776 -0.000731167 -0.000747117 0.00124107 -0.00058045 0.572523 0.161667 0.0439576 0.004 300 0 
50 1 1 -0.0295149 -0.016759 0.0182927 0 0 0 -0.000328381 -9.50453e-05 -0.00078584 0.000148669 -0.00102198 -0.000239163 0.260854 -0.132142 0.218689 0.004 300 0 
202 1 1 -0.0134773 -0.0172067 0.0161192 0 0 0 0.0011664 -0.000946149 0.00152119 1.59281e-05 0.00465551 -8.98925e-05 -0.374623 -0.46872 -0.113717 0.004 300 0 
86 1 1 -0.00525663 -0.0199312 0.0183083 0 0 0 -0.000457438 -0.000651802 0.00356934 -0.000647984 0.00435959 0.00319959 0.586089 0.104193 -0.457272 0.004 300 0 
129 1 1 0.0139018 -0.0196564 0.0162631 0 0 0 -0.000627079 0.00195174 0.000819362 0.000495119 0.00131549 -0.00153764 0.438866 -0.883034 0.0457538 0.004 300 0 
82 1 1 0.0291132 -0.0151314 0.0159313 0 0 0 0.000619701 0.000987073 0.00165841 0.00196001 0.000228718 7.22059e-05 0.287888 -0.310793 0.158202 0.004 300 0 
1 1 1 0.0424743 -0.0178109 0.0178727 0 0 0 0.00035316 -0.000752698 -0.000610377 -0.000242198 0.000204854 0.000445649 0.204302 0.129681 -0.10639 0.004 300 0 
168 1 1 -0.0224875 -0.0136344 0.0164115 0 0 0 -6.30066e-05 0.000990957 0.000632306 0.00186416 -0.00115565 0.000510217 0.642566 0.369894 -0.375611 0.004 300 0 
121 1 1 -0.00522551 -0.0120345 0.0174398 0 0 0 0.000721127 -0.000598802 -0.000440404 -0.00101366 0.00235061 0.000581305 -1.11143 0.0912429 0.137093 0.004 300 0 
28 1 1 0.00810959 -0.0138693 0.0183264 0 0 0 0.000407555 0.00255635 -0.00242291 -0.000349011 0.00107029 0.00133203 -0.35752 1.30256 0.862967 0.004 300 0 
42 1 1 0.0200563 -0.0147985 0.0172924 0 0 0 0.000406683 0.00023953 0.00334173 -0.00066272 0.000790581 -0.000423905 -0.743316 -0.159929 -0.65633 0.004 300 0 
60 1 1 0.0376044 -0.0116229 0.0161856 0 0 0 -2.36194e-05 0.000939615 4.8699e-05 0.000360035 0.00056327 -0.000570132 -0.281314 -0.420609 0.102782 0.004 300 0 
135 1 1 -0.0452114 -0.00864589 0.0176832 0 0 0 -0.000130739 0.000312398 0.00102408 0.000642664 0.00141759 0.00282867 -0.168447 0.336696 -0.319927 0.004 300 0 
81 1 1 -0.0376117 -0.00945278 0.0199465 0 0 0 -0.000502468 0.00328187 -0.00507238 0.00157991 0.000153357 0.000337666 -0.137675 0.412381 0.24288 0.004 300 0 
190 1 1 -0.0303577 -0.00906657 0.0166646 0 0 0 0.000431054 -0.000432679 -0.001822 0.00101446 0.000525015 0.00125264 -0.414078 -0.959658 -0.283048 0.004 300 0 
7 1 1 -0.0204735 -0.00598447 0.0162431 0 0 0 0.00233899 0.000973948 -0.000665456 -0.000241085 -0.000742044 -0.00036367 -0.671081 0.800009 -0.154607 0.004 300 0 
145 1 1 -0.0120328 -0.00830836 0.0160598 0 0 0 0.00127436 -0.000588741 -0.000718453 -0.000554949 0.000449079 -0.000558264 -0.441883 0.636267 -0.198352 0.004 300 0 
186 1 1 0.00203423 -0.00889723 0.0169461 0 0 0 0.00046889 -0.000252187 -0.00338304 -0.00131108 0.00112216 0.000900773 -0.0190774 0.00447924 -0.121704 0.004 300 0 
56 1 1 0.0144391 -0.00913708 0.0174004 0 0 0 0.000810698 0.000112804 -0.00204336 0.000439774 0.000992974 0.00123796 1.3617 -0.231274 -0.862363 0.004 300 0 
191 1 1 0.0221519 -0.0071868 0.0170567 0 0 0 0.00058699 0.000265162 0.000741438 -0.00164313 0.00110229 -0.000253854 0.137953 0.307808 0.450233 0.004 300 0 
208 1 1 0.0315025 -0.00608448 0.0178164 0 0 0 0.00078629 0.00127353 0.000731227 -0.000603678 0.000837793 -0.00172627 0.0566516 0.0999347 -0.073104 0.004 300 0 
92 1 1 0.0451094 -0.00922754 0.0172033 0 0 0 0.000204335 0.00120548 0.000215857 0.000243243 0.00103004 0.000321142 -0.322694 0.190218 -0.106882 0.004 300 0 
192 1 1 -0.0460794 -0.000755255 0.0176248 0 0 0 0.00108807 0.000444587 0.00124591 0.00117148 0.000438351 0.00228358 -0.0554674 -0.0604155 0.0999675 0.004 300 0 
462 1 1 -0.0271878 -0.00180753 0.0172708 0 0 0 0.00139963 -0.000346878 -0.00133833 -5.48956e-05 0.000580352 0.00188573 -0.0614055 -0.2259 0.0642355 0.004 300 0 
450 1 1 -0.0128034 -0.000762011 0.0182653 0 0 0 0.000270102 3.89745e-05 -0.00113176 -0.00131408 -0.00177609 -0.00211914 0.437194 0.0183176 0.565253 0.004 300 0 
111 1 1 -0.00560783 -0.00406741 0.0190681 0 0 0 -0.00129115 0.000177283 -0.00280999 -0.00153943 -0.000525213 -0.000228206 0.802204 -0.165319 -0.827284 0.004 300 0 
622 1 1 0.000990962 -0.00110204 0.0157606 0 0 0 -0.000271813 -0.000359658 -0.000519284 0.000607041 0.0012041 -0.00168476 0.602406 0.203918 0.14154 0.004 300 0 
106 1 1 0.00831505 -0.00409891 0.0166967 0 0 0 0.000230157 0.00159125 -0.000684824 -0.000348975 -0.00102095 -0.00138022 0.161237 -0.690778 0.721189 0.004 300 0 
651 1 1 0.0260816 -0.0002663 0.0173977 0 0 0 0.000864319 0.000399362 0.000574532 -0.000736446 0.00100188 -0.00160038 0.314555 0.549722 -0.0951957 0.004 300 0 
133 1 1 0.0390526 -0.00380234 0.0166522 0 0 0 0.000355026 0.00100187 -0.000663421 -0.000209526 0.00105153 -0.00194198 -0.0107102 0.274332 0.165051 0.004 300 0 
164 1 1 0.0460327 -0.00177607 0.0198717 0 0 0 0.000291726 0.00294267 -0.000634784 0.000916763 -0.000937498 -0.00238346 0.655929 -0.0980705 0.828611 0.004 300 0 
127 1 1 -0.00215856 -0.0460621 0.0237631 0 0 0 -0.000773678 -1.06098e-05 0.002067 -0.0041681 5.0053e-05 0.00141292 0.114604 -0.253883 -0.276216 0.004 300 0 