ITEM: TIMESTEP
6400
ITEM: NUMBER OF ATOMS
890
ITEM: BOX BOUNDS mm mm mm
-0.05 0.05
-0.05 0.05
0 0.15
ITEM: ATOMS id type type x y z ix iy iz vx vy vz fx fy fz omegax omegay omegaz radius f_Temp[0] f_heatFlux[0] 
59 1 1 -0.00105561 -0.0460728 0.00391863 0 0 0 0.0140782 0.00207633 -0.00111509 -0.00560941 0.000711042 -0.00182597 0.0240302 0.802554 -4.28443 0.004 300 0 
170 1 1 -0.0174398 -0.0425994 0.00397966 0 0 0 -0.00891211 -0.000806823 -0.00149846 0.00408309 0.000170429 -0.00415817 1.26445 1.05409 -0.591833 0.004 300 0 
15 1 1 -0.00982822 -0.0449416 0.0039487 0 0 0 -0.00706163 -0.000878986 -0.00454593 -0.00383456 -0.00184938 -0.00027462 1.0933 -0.439116 1.02824 0.004 300 0 
116 1 1 0.00621613 -0.0429033 0.00396667 0 0 0 0.0135543 -0.0105748 -0.00130359 -0.00245685 0.00588444 -0.00830528 0.703718 -0.505277 1.23277 0.004 300 0 
158 1 1 0.0141095 -0.0438499 0.00393469 0 0 0 0.0046519 -0.0034745 -0.00978098 -0.00892517 -0.00088834 -0.0157241 0.384919 1.99354 0.650965 0.004 300 0 
98 1 1 0.0215 -0.0407289 0.00393553 0 0 0 -0.00610584 -0.00188001 -0.00247338 0.0128575 0.000172514 -0.020012 0.201506 -0.854422 -2.09431 0.004 300 0 
169 1 1 -0.0245328 -0.0390074 0.00391427 0 0 0 -0.0072461 0.00807904 0.00241167 0.00489739 -0.0050783 -0.00104786 -2.08195 -2.54214 -0.132067 0.004 300 0 
89 1 1 -0.0118116 -0.0369619 0.0039834 0 0 0 -0.00416527 -0.00620551 -0.00127862 -0.000403846 0.00771802 -0.000894168 0.11393 0.405835 -2.40833 0.004 300 0 
152 1 1 -0.004082 -0.0387654 0.00389328 0 0 0 -0.00173932 0.000763256 -0.000517785 0.000789828 0.000442809 -0.00643386 -0.678934 -1.04231 6.86344 0.004 300 0 
23 1 1 0.0151437 -0.0359927 0.00392877 0 0 0 -0.00780744 -0.00651051 -0.0122396 -0.00797538 -0.0103614 -0.0229658 -0.47454 -0.414119 2.34054 0.004 300 0 
118 1 1 -0.0308479 -0.0341263 0.00398293 0 0 0 -0.00329449 0.00311842 -0.00446146 -0.00673636 0.00108821 -0.0241865 -0.814104 -0.234112 0.788569 0.004 300 0 
30 1 1 -0.0189119 -0.0333924 0.00390336 0 0 0 -0.00108849 0.00340225 0.00217587 -0.00135715 -0.00313037 0.00749706 -0.837876 -0.00230894 -0.946085 0.004 300 0 
215 1 1 -0.00591706 -0.0310416 0.00390889 0 0 0 -0.0188862 -0.00555524 -0.0084397 0.00668931 -0.00707495 -0.0161819 1.37311 -4.83086 -2.32211 0.004 300 0 
74 1 1 0.0017594 -0.0331019 0.00391223 0 0 0 -0.0228215 -0.0274491 -0.00614755 -0.0116897 -0.011823 0.00862849 1.42883 -3.05652 -0.391234 0.004 300 0 
24 1 1 0.00926833 -0.0306118 0.00394578 0 0 0 -0.0245399 -0.019044 0.00397972 -0.00448592 -0.00861774 -0.00672264 -0.670571 1.13985 2.76478 0.004 300 0 
198 1 1 0.0248592 -0.033445 0.00396262 0 0 0 -0.00249584 -0.0392249 0.000367622 0.00658947 -0.00919476 0.0231372 -4.25153 -3.68249 5.4631 0.004 300 0 
161 1 1 0.0329014 -0.0322377 0.00391407 0 0 0 0.00885552 0.00638335 -0.00189925 -0.00920096 0.00376011 -0.00792189 -0.492332 3.08295 -3.10571 0.004 300 0 
8 1 1 -0.032366 -0.0262834 0.00397208 0 0 0 0.00337448 0.0036169 0.000432069 -0.00265409 0.00450063 0.00126072 -0.234071 0.502323 -0.483026 0.004 300 0 
12 1 1 -0.0245095 -0.0277152 0.00384371 0 0 0 0.00429588 0.0109277 -0.00254577 -0.00334263 -0.00764539 0.00732378 -4.39762 1.45495 2.86828 0.004 300 0 
188 1 1 -0.0132041 -0.027881 0.00395122 0 0 0 -0.00943501 0.0174171 -0.00319553 0.0110348 -0.00421966 0.00483336 2.09527 1.97566 -1.8035 0.004 300 0 
77 1 1 -0.000334502 -0.0254016 0.00390247 0 0 0 -0.013946 -0.00958189 0.00403087 0.00268154 -0.0111347 -0.00574078 1.35123 -3.51191 -0.365162 0.004 300 0 
113 1 1 0.016808 -0.0282397 0.00386845 0 0 0 -0.0232425 -0.000195787 -0.00489983 0.00977563 -0.00114199 -0.000415435 2.5474 -2.85943 0.13537 0.004 300 0 
183 1 1 0.0382207 -0.0256967 0.00395347 0 0 0 -0.000905773 9.09843e-05 -0.00320288 0.00802486 0.00719255 -0.00634657 -0.0941346 -0.591993 0.0804843 0.004 300 0 
162 1 1 -0.0397335 -0.0230422 0.00389346 0 0 0 0.00318402 -0.0196945 -0.0139206 -0.00543995 -0.000784327 0.0243099 3.37061 0.216435 2.45259 0.004 300 0 
148 1 1 -0.0187901 -0.0221904 0.00393661 0 0 0 -0.00315739 0.0143064 0.00129304 0.0148503 -0.00327435 0.00935102 -1.43027 2.20122 2.98389 0.004 300 0 
195 1 1 -0.00760706 -0.0221926 0.00397193 0 0 0 -0.00899587 0.0125093 -0.00559007 0.0136723 -0.00537454 -0.00391834 -2.5408 -0.0431671 -1.09785 0.004 300 0 
179 1 1 0.00725411 -0.0229019 0.00394066 0 0 0 -0.0174189 -0.0100117 -0.00826554 -0.00904279 -0.00413027 0.00471301 3.35905 -2.10697 -1.71911 0.004 300 0 
95 1 1 0.014897 -0.0205731 0.00392742 0 0 0 -0.00523075 0.00214821 -0.00231683 0.00924635 -0.0056701 0.0122212 -0.995209 -0.583313 -5.2755 0.004 300 0 
76 1 1 0.023086 -0.0233323 0.00391277 0 0 0 0.00536123 -0.00499449 -0.0055734 -0.0283656 0.0453496 0.014413 0.732038 -0.168155 -5.41056 0.004 300 0 
100 1 1 0.0326023 -0.0201008 0.00393458 0 0 0 0.00395675 0.00232898 -0.00149086 0.0058302 0.00193196 0.000350138 -0.220973 0.99856 -2.10556 0.004 300 0 
65 1 1 -0.0432221 -0.0159106 0.00397668 0 0 0 0.00491047 -0.0188558 -0.00222107 -0.000605058 0.00383798 -0.00508541 0.22877 0.23879 -2.75254 0.004 300 0 
102 1 1 -0.0353107 -0.0153128 0.00393351 0 0 0 0.00238352 0.0131897 -0.0148473 -0.00437876 0.0194312 -0.00961043 0.728508 0.250721 -0.439556 0.004 300 0 
53 1 1 -0.0279415 -0.0196319 0.00396211 0 0 0 -0.00223788 0.0125875 -0.00806438 0.0121367 -0.00395114 -0.000964093 -2.51714 -0.520241 3.3816 0.004 300 0 
213 1 1 -0.0132058 -0.0165419 0.00402196 0 0 0 -0.00981405 0.0149115 -0.0216629 0.0276231 0.000925842 -0.00586099 1.24679 0.195317 0.192657 0.004 300 0 
5 1 1 0.00917627 -0.0151295 0.00390835 0 0 0 -0.00526019 -0.00426942 -0.0032532 -0.0050272 -0.00858704 -0.000255838 1.9435 -0.643941 6.80195 0.004 300 0 
96 1 1 0.0209708 -0.015507 0.00396322 0 0 0 0.00246593 -0.0131895 -0.00824148 0.00552703 -0.000471431 -0.00214013 0.918396 1.38229 0.78659 0.004 300 0 
167 1 1 0.0420455 -0.0186763 0.00393238 0 0 0 0.00134662 0.00452274 0.00191722 0.00702475 0.00602243 -0.00656191 -1.48087 0.592855 -1.16835 0.004 300 0 
124 1 1 -0.028651 -0.0109887 0.00396128 0 0 0 0.00329548 0.00678327 -0.00629484 -0.00707973 0.00974643 -0.0122665 1.03905 -0.11722 0.871108 0.004 300 0 
220 1 1 -0.0216268 -0.0147659 0.00397187 0 0 0 0.00201453 0.0091985 -0.000879703 -0.00922504 0.0101244 -0.00765938 -1.01133 0.0371597 -1.81753 0.004 300 0 
144 1 1 -0.00552838 -0.0143855 0.00391869 0 0 0 -0.00790966 0.00997031 -0.00628611 0.00356072 -0.00316493 -0.00152625 -2.63495 -2.22406 -2.26181 0.004 300 0 
194 1 1 0.0285814 -0.0132631 0.0039275 0 0 0 -0.00440426 0.000227238 -0.00150765 -0.00897607 -0.00190531 -0.000860376 0.350292 -0.912175 3.24963 0.004 300 0 
37 1 1 0.0366909 -0.0127002 0.0039544 0 0 0 0.0172568 0.0135349 -0.00114393 -0.00701496 -0.009504 -0.0212353 -2.62819 3.7196 1.72348 0.004 300 0 
219 1 1 0.0446355 -0.0111573 0.00389242 0 0 0 0.00553821 0.000786697 -0.00137709 0.00792139 -0.0032412 0.00437186 0.497567 1.29589 0.33059 0.004 300 0 
636 1 1 -0.0452783 -0.0082558 0.00393416 0 0 0 0.00140391 -0.0243166 -0.00365904 -0.00698851 0.0199473 0.001413 -1.20695 -0.697776 3.62502 0.004 300 0 
39 1 1 -0.0160053 -0.00911856 0.00389101 0 0 0 -0.00431916 0.0179128 -0.00123764 0.00249058 0.00623477 0.00437463 -2.73717 -0.727703 -4.40245 0.004 300 0 
171 1 1 -0.00376675 -0.00618128 0.00392167 0 0 0 0.00465778 0.00895785 -0.00166102 -0.00803921 -0.00333248 0.00470615 -1.18102 -0.24474 -3.49642 0.004 300 0 
26 1 1 0.0031944 -0.00997571 0.00393513 0 0 0 -0.012828 -0.0194617 -0.00253181 -0.00807969 -0.00474829 -0.00769322 -0.249073 -0.662343 -3.10008 0.004 300 0 
200 1 1 0.014861 -0.00957975 0.00388696 0 0 0 -0.0121973 7.85619e-05 0.00472464 -0.0187981 -0.0154259 0.00264133 -1.10977 -1.94517 -4.36571 0.004 300 0 
21 1 1 0.022622 -0.0077221 0.00392015 0 0 0 -0.0306103 -0.00106101 -0.00470051 0.00687562 0.00328494 -0.00286061 -0.653316 0.594373 0.700973 0.004 300 0 
17 1 1 0.0303131 -0.00551427 0.003902 0 0 0 -0.0266324 0.00718851 0.0024242 -0.010622 0.00462202 0.00701352 -1.05564 -4.56496 1.28095 0.004 300 0 
477 1 1 -0.0433438 -0.000541209 0.0039556 0 0 0 -0.0626257 -0.0213878 0.00272727 -0.0169713 0.00281043 -0.00466979 -0.411978 -3.17907 3.13143 0.004 300 0 
140 1 1 -0.0353619 -0.00381243 0.00387322 0 0 0 0.00184698 -0.00404259 -0.00680962 -0.00173814 0.0201907 -0.0051481 1.30406 -1.75885 7.12183 0.004 300 0 
119 1 1 -0.027426 -0.0031198 0.00398293 0 0 0 -0.00165706 0.00663191 -0.00387747 0.0160933 -0.00534558 -0.00111663 -1.77464 -1.49189 1.9711 0.004 300 0 
207 1 1 -0.0194109 -0.00199048 0.00388964 0 0 0 0.00905077 0.0256754 -0.00498813 -0.00898909 0.00722931 0.0162872 -1.26629 2.75721 0.192438 0.004 300 0 
69 1 1 -0.0109663 -0.0028471 0.00390208 0 0 0 0.0130632 0.0183046 0.00265637 -0.00949768 0.00121314 0.00342689 -2.48055 3.39041 0.559 0.004 300 0 
221 1 1 0.00824017 -0.00374599 0.00395027 0 0 0 0.0306897 -0.0357448 -0.00297851 0.00322439 -0.00545179 0.0049214 1.99787 1.23641 0.907304 0.004 300 0 
457 1 1 0.0163947 -0.00178933 0.00398025 0 0 0 0.0103721 -0.000362993 0.00154475 -0.00572629 -0.0106335 0.00162978 0.126692 0.435232 -2.49851 0.004 300 0 
155 1 1 0.0379044 -0.0027948 0.0039403 0 0 0 -0.00817993 0.0128269 0.00220596 0.000583179 -0.000978068 -0.00569391 -3.10362 -1.71055 -0.198992 0.004 300 0 
665 1 1 0.0458998 -0.00335097 0.00391845 0 0 0 0.0052587 0.00189315 -0.00157469 0.00904206 0.000958453 0.0180064 -0.627596 2.27827 0.165372 0.004 300 0 
2 1 1 0.0011145 -0.0383154 0.00984676 0 0 0 -0.0148895 -0.0033416 0.0141633 0.0028044 0.0220344 -0.00241842 -4.36825 0.495 3.54131 0.004 300 0 
120 1 1 0.00905515 -0.0373284 0.00886842 0 0 0 -0.00791283 -0.00131039 0.000503417 0.000610552 0.00909701 -0.00801024 0.028632 -0.649206 6.22545 0.004 300 0 
9 1 1 -0.0246296 -0.0333091 0.00938191 0 0 0 -0.0100359 0.0140029 -0.000780661 -0.0111747 -0.0137914 -0.000282155 0.47179 -4.44992 -6.04224 0.004 300 0 
101 1 1 -0.0189515 -0.02778 0.00956009 0 0 0 0.00455368 0.0051116 -0.000772969 -0.0148341 -0.00225731 -0.00563949 1.83225 -3.05451 -3.82886 0.004 300 0 
48 1 1 0.022035 -0.0286708 0.00969376 0 0 0 -0.00958205 -0.0156628 -0.0188962 -0.00221381 -0.0125951 0.0117547 -0.303894 8.25475 -0.856842 0.004 300 0 
75 1 1 0.0293902 -0.0262813 0.00776919 0 0 0 0.00804828 -0.00176968 0.010852 -0.0366987 0.00682765 0.0123477 -0.347496 1.81228 5.68185 0.004 300 0 
46 1 1 -0.0333412 -0.020263 0.00978025 0 0 0 -0.00473293 0.0184086 -0.019044 0.00471544 -0.00661409 -0.00113451 -2.31156 -1.83953 -0.278951 0.004 300 0 
33 1 1 -0.0131429 -0.0224084 0.00970156 0 0 0 0.00549066 0.000192065 0.0118167 0.00198762 0.00575203 -0.00107531 2.65192 2.28482 2.81374 0.004 300 0 
10 1 1 0.00155953 -0.0176011 0.00555777 0 0 0 -0.0200942 -0.0122347 0.000160041 -0.00766658 -0.00569874 0.00649806 1.25375 -0.641183 1.43189 0.004 300 0 
11 1 1 0.0268431 -0.0188691 0.00930433 0 0 0 0.012303 -0.00597025 -0.00546616 0.00218622 -0.00320469 -0.0082961 -3.82637 -2.58595 3.99084 0.004 300 0 
71 1 1 -0.0373689 -0.00948184 0.00896548 0 0 0 0.000316495 0.00666059 -0.0157524 -0.0102579 0.0172495 -0.0116829 -2.82465 -2.00361 -6.0861 0.004 300 0 
62 1 1 -0.0226002 -0.00812699 0.0082574 0 0 0 -0.00429738 0.00981111 -0.00875819 -0.0125408 0.0111127 0.00348128 -2.00567 0.336708 -0.0696349 0.004 300 0 
19 1 1 -0.00952727 -0.00919843 0.00844993 0 0 0 -0.00352304 0.00517382 -0.00719093 0.00154559 -0.00768101 0.00343586 3.70883 0.974407 0.238497 0.004 300 0 
187 1 1 0.00888553 -0.00935874 0.00959577 0 0 0 0.00481231 -0.053181 -0.0138191 -0.0025703 -0.00282792 -0.0154042 3.90071 -1.4117 -0.467993 0.004 300 0 
157 1 1 0.0391136 -0.00794917 0.00986342 0 0 0 0.000770714 0.0103561 0.00220065 -0.0107699 0.00537859 0.00385177 2.47683 0.498289 2.13863 0.004 300 0 
18 1 1 0.00210616 -0.00403026 0.00902446 0 0 0 0.00198239 0.00442667 -0.0333016 -0.000622178 -0.0128747 0.0283914 -6.90965 -2.01917 -4.31606 0.004 300 0 
185 1 1 -0.00542717 -0.0457242 0.0105093 0 0 0 0.00178043 -0.00133057 -0.013786 -0.00392236 0.0125315 0.00291591 1.72065 2.96974 0.702184 0.004 300 0 
83 1 1 0.00248374 -0.0460165 0.0110417 0 0 0 0.00258478 -0.000856008 0.011794 0.00487209 0.00567981 0.00570635 3.93533 -0.10784 0.199503 0.004 300 0 
58 1 1 -0.0214212 -0.0408326 0.0110088 0 0 0 -0.0106667 -0.00150765 -0.00218457 -0.00823377 0.0177695 0.00518641 -1.80359 -0.212698 0.539587 0.004 300 0 
105 1 1 -0.0133113 -0.0425072 0.010809 0 0 0 -0.0259021 -0.0160356 0.0057155 0.00974555 -0.00293362 -0.00676483 -14.1367 -11.6081 -1.28243 0.004 300 0 
223 1 1 0.0103083 -0.0449174 0.0108318 0 0 0 0.00876865 0.00692596 0.000660037 0.00122723 0.0153998 0.00257166 -1.25449 2.89434 -1.57909 0.004 300 0 
217 1 1 0.0178345 -0.0424922 0.0108147 0 0 0 0.0239791 -0.021495 -0.0402145 -0.0463202 0.0645495 0.00918481 2.73715 1.41378 -0.517882 0.004 300 0 
6 1 1 -0.0161151 -0.0350335 0.0111375 0 0 0 -0.0214283 -0.000954379 0.0104103 -0.00112375 0.0143392 0.0107333 2.24265 -5.57252 2.86489 0.004 300 0 
151 1 1 -0.00675439 -0.0379176 0.0112845 0 0 0 -0.0293819 -0.00288352 -0.00629522 0.000493594 0.00422815 -0.0130423 -2.91532 -1.41201 2.37807 0.004 300 0 
117 1 1 0.0248079 -0.0388322 0.0108764 0 0 0 0.00641853 0.00317483 -0.0152363 -0.00304143 0.0121916 -0.0229331 -1.22635 1.77109 2.6018 0.004 300 0 
13 1 1 -0.0321698 -0.0329469 0.0117611 0 0 0 -0.00718098 0.0065412 -0.0192072 -0.0264019 0.00572521 0.0553093 5.71613 5.27625 0.195017 0.004 300 0 
193 1 1 -0.00967412 -0.0305129 0.0108175 0 0 0 -0.0264692 0.00185919 -0.0174214 0.00399218 0.0152466 -0.0275796 -2.74965 2.50847 -1.32568 0.004 300 0 
47 1 1 -0.00172453 -0.0309645 0.0107024 0 0 0 -0.0218158 0.00662516 -0.0187974 -0.00318752 0.0100685 0.0413805 -6.6073 4.82155 -1.76247 0.004 300 0 
153 1 1 0.00663012 -0.0302318 0.0114252 0 0 0 -0.0226765 -0.00855363 0.00775009 -0.00908354 -0.00594781 -0.00263548 -1.66902 8.45546 0.747367 0.004 300 0 
41 1 1 0.0146392 -0.0317945 0.0106152 0 0 0 0.00952886 -0.028904 -0.01963 -0.0184042 0.00740771 0.00622513 2.47106 6.26273 7.62762 0.004 300 0 
163 1 1 0.0310113 -0.0340359 0.0113875 0 0 0 -0.000247868 0.00690757 -0.0120163 0.00604703 0.0125094 -0.00861627 0.618285 -2.60941 -0.860119 0.004 300 0 
214 1 1 -0.0372782 -0.0271193 0.0102 0 0 0 -0.00666854 0.0134251 -0.000919727 -0.00762385 0.00681293 0.0126595 -4.71546 -2.82992 2.94978 0.004 300 0 
210 1 1 0.0363475 -0.0282473 0.0112425 0 0 0 0.00603494 0.00505179 -0.00555901 0.00438464 0.00903359 -0.0158149 0.658511 0.174791 -1.31248 0.004 300 0 
160 1 1 -0.0413808 -0.0201187 0.0110727 0 0 0 -0.0197732 0.0348718 -0.039036 0.00402384 -0.0123349 0.0348263 -4.73018 0.355004 1.54641 0.004 300 0 
108 1 1 -0.0263258 -0.0239333 0.0104861 0 0 0 -0.00632456 0.0123848 -0.004775 -0.00258988 0.00117635 0.0201004 6.10617 -5.92417 -6.89637 0.004 300 0 
40 1 1 -0.00529959 -0.0239167 0.011448 0 0 0 -0.0257428 -0.00500024 0.00334311 0.00501931 0.0370202 -0.00682788 0.134314 -2.5659 -1.00668 0.004 300 0 
55 1 1 0.00262311 -0.0234268 0.0109241 0 0 0 -0.023536 -0.00761716 0.00506482 -0.00840625 -0.00343644 -0.0333174 -2.63825 0.130717 -1.90299 0.004 300 0 
91 1 1 0.0118924 -0.0243763 0.010202 0 0 0 -0.00945119 -0.0298495 -0.0268732 -0.000837248 -0.0173841 0.0253085 -6.3842 4.72538 -3.88584 0.004 300 0 
112 1 1 0.0192988 -0.0210888 0.0105437 0 0 0 0.0113311 0.0137025 -0.00692919 -0.0118767 0.000460929 0.0061687 2.98598 -1.66524 -6.76617 0.004 300 0 
178 1 1 0.0316141 -0.0227202 0.0145122 0 0 0 0.0140605 0.0155915 0.000752985 0.00755814 0.00835118 0.00679805 0.126157 -3.35283 -0.178284 0.004 300 0 
131 1 1 0.04067 -0.0216484 0.0111372 0 0 0 0.00580971 0.010587 0.00438782 0.00984706 0.0111386 -0.0110467 -0.0754979 -0.109612 1.66233 0.004 300 0 
104 1 1 -0.020203 -0.0190162 0.0111136 0 0 0 0.00529475 0.0030224 0.0117035 0.0178192 -0.00400103 0.0089376 -5.29442 1.29955 3.53944 0.004 300 0 
20 1 1 -0.0080903 -0.0165106 0.0111124 0 0 0 0.00649241 0.00471095 -0.0101664 0.0109373 0.0209964 0.0184827 -4.00927 6.63344 -0.312252 0.004 300 0 
45 1 1 0.000750786 -0.0167256 0.0146798 0 0 0 0.00276748 0.00619873 -0.0113196 0.019592 -0.00137202 0.0102764 -0.215251 1.32679 -4.08093 0.004 300 0 
159 1 1 0.00793492 -0.0175539 0.0113129 0 0 0 0.00295845 -0.0204288 -0.0110882 0.01215 -0.0241404 0.000715128 -0.689886 0.244565 -1.06006 0.004 300 0 
136 1 1 0.0346972 -0.0164632 0.0106751 0 0 0 0.00774747 0.00640065 -0.00830974 0.0200086 0.01051 -0.0143663 -0.756916 -3.70125 -0.20088 0.004 300 0 
177 1 1 -0.0442569 -0.0127207 0.0112237 0 0 0 -0.00938984 0.0307965 -0.0202033 -0.0121937 0.0052398 -0.0189818 -2.04242 -0.818106 0.108322 0.004 300 0 
43 1 1 -0.0360269 -0.0146946 0.0147434 0 0 0 -0.0130036 0.0118263 -0.0248413 -0.0169675 0.00468066 -0.00767236 3.14939 3.07321 -0.759009 0.004 300 0 
4 1 1 -0.027263 -0.0151839 0.010595 0 0 0 0.0632463 -0.0406744 -0.0568959 -0.00354825 -0.00324805 -0.0282259 -4.57547 -5.09582 3.33397 0.004 300 0 
139 1 1 -0.0163693 -0.0121282 0.0111835 0 0 0 -0.00956464 0.0155953 -0.00679888 -0.00457326 0.0148242 0.00072155 5.80561 2.32967 -2.41615 0.004 300 0 
211 1 1 -0.00188368 -0.0108481 0.0100515 0 0 0 0.00110135 0.0108948 -0.00682087 -0.00662162 -0.0114652 0.00327529 0.549308 3.24738 -0.84117 0.004 300 0 
54 1 1 0.0151275 -0.0143216 0.0102261 0 0 0 -0.00338459 0.0135617 0.0225789 -0.0146933 -0.0137864 0.00150119 2.37959 1.4355 7.86819 0.004 300 0 
84 1 1 0.0228491 -0.011813 0.0107469 0 0 0 0.0238054 -0.00682724 -0.0180811 0.0295882 -0.00572954 0.0248096 -1.93691 -0.559365 0.919925 0.004 300 0 
180 1 1 0.0437329 -0.0143426 0.0110299 0 0 0 0.0033526 0.00182211 -0.00107187 0.00176923 0.00337667 -0.00346932 -0.218307 -0.731229 -1.94777 0.004 300 0 
103 1 1 0.0167868 -0.0064472 0.01087 0 0 0 0.020503 0.0012941 -0.00433558 0.0235768 -0.00476574 -0.0012944 1.00917 5.77584 -0.47165 0.004 300 0 
156 1 1 0.0306193 -0.00965477 0.0106815 0 0 0 0.0021158 0.000572221 -0.00415262 -0.0111376 0.0040341 -0.00263125 0.179938 5.08567 -0.963007 0.004 300 0 
197 1 1 -0.0457934 -0.00493312 0.0111033 0 0 0 -0.00173889 0.0166263 -0.0139677 0.00685163 0.0249206 0.00414333 -1.799 1.53209 2.42646 0.004 300 0 
130 1 1 -0.031479 -0.00419878 0.0107955 0 0 0 -0.00813875 0.00458987 -0.00582026 -0.00111964 -0.00839418 -0.00958651 1.3742 -1.86821 -1.2646 0.004 300 0 
604 1 1 -0.0226099 -0.000662407 0.0109643 0 0 0 0.00886294 0.00617161 0.00327138 -0.0162364 -0.0018302 0.0230237 7.60407 -2.24291 0.196446 0.004 300 0 
146 1 1 -0.0151474 -0.00327861 0.0105752 0 0 0 0.0147366 -0.00126925 -0.000863362 -0.0124483 0.00314269 -0.00137397 7.38851 -3.39863 2.02856 0.004 300 0 
57 1 1 -0.00536061 -0.00334876 0.0117726 0 0 0 0.00404454 0.0139177 -0.0390412 0.00549778 0.00391293 -0.0161731 -4.89622 7.71662 2.42132 0.004 300 0 
493 1 1 0.0116353 -0.00045648 0.0103545 0 0 0 0.0207364 -0.000939989 -0.00885655 0.0207086 0.00596451 0.0142002 -3.07692 -3.66153 -1.41497 0.004 300 0 
31 1 1 0.0248456 -0.00409037 0.0105882 0 0 0 0.0177542 -0.00953952 -0.0192629 0.0167282 -0.0142785 0.00161786 1.07392 4.76067 -2.83858 0.004 300 0 
588 1 1 0.0324589 -0.00192363 0.0105999 0 0 0 0.0176848 -0.00546741 -0.00653394 -0.00156001 0.0019682 0.0119873 0.544289 3.57878 -1.03275 0.004 300 0 
63 1 1 0.0455018 -0.0036277 0.011831 0 0 0 0.0155776 0.0213244 -0.00267259 0.0105423 -0.00589182 -0.00207546 -3.63586 0.64793 0.170585 0.004 300 0 
107 1 1 -0.00919034 -0.0451107 0.0174201 0 0 0 0.0182183 0.00546455 -0.00161054 0.012971 0.00682012 0.0327231 -3.42631 -1.02679 -2.23658 0.004 300 0 
222 1 1 -0.00154306 -0.0428401 0.0171076 0 0 0 0.00624547 0.0337725 -0.00452697 -0.0128657 0.0227153 -0.0167102 -7.62537 -0.00705234 1.45935 0.004 300 0 
142 1 1 0.00601268 -0.0403568 0.0157084 0 0 0 0.0254484 0.0423936 0.000710683 -0.0299771 -0.000469042 -0.0240856 -2.38466 2.86522 -5.01544 0.004 300 0 
172 1 1 0.0116615 -0.0446094 0.0193192 0 0 0 -0.0393758 -0.00455674 0.0281813 -0.0015374 0.0302718 -0.0171801 0.240177 -4.21584 -0.707098 0.004 300 0 
109 1 1 0.0201679 -0.0413695 0.0183791 0 0 0 0.0102532 -0.00139416 -0.0283011 0.0284985 -0.0366879 -0.0217744 -1.91981 7.65763 -5.41348 0.004 300 0 
150 1 1 -0.0269214 -0.0374435 0.0156673 0 0 0 -0.0105549 0.0133478 0.000565557 0.00446225 0.0161058 0.00436081 1.91844 8.21844 3.16281 0.004 300 0 
38 1 1 -0.0194299 -0.0371383 0.0181503 0 0 0 -0.0145664 -0.00121726 -0.0282643 0.0211665 0.00998503 -0.014741 7.5837 -8.23768 0.794373 0.004 300 0 
199 1 1 -0.0115486 -0.0365415 0.0174439 0 0 0 -0.0128933 0.00732306 0.00670762 0.00656869 -0.0128651 -0.0143296 -4.96993 7.01094 1.22837 0.004 300 0 
32 1 1 -0.00369159 -0.0352308 0.0181031 0 0 0 -0.00212284 0.0431895 -0.0403546 -0.0125855 0.0216638 -0.0242538 -1.8779 5.11958 1.74765 0.004 300 0 
93 1 1 0.0135694 -0.0378655 0.0156086 0 0 0 0.0323339 -0.0262049 -0.00386837 -0.030824 0.0583433 -0.0234447 -0.986661 -2.93449 -0.50093 0.004 300 0 
64 1 1 0.0276457 -0.0367729 0.0180395 0 0 0 -0.0113801 -0.00499921 -0.0187757 0.0085929 0.00448323 -0.0179051 0.89277 -1.77861 2.07413 0.004 300 0 
174 1 1 -0.0224862 -0.0300729 0.0162888 0 0 0 -0.00860189 -0.00518581 -0.00714199 0.013509 -0.00135191 -0.0136199 2.28249 0.929923 -0.240333 0.004 300 0 
128 1 1 0.00394929 -0.0331283 0.0183197 0 0 0 -0.00903515 0.0211893 0.022063 -0.0314062 -0.0176532 -0.061543 5.80902 -2.38968 -8.28498 0.004 300 0 
88 1 1 0.011437 -0.0305241 0.0177556 0 0 0 0.00810236 -0.0345104 -0.0137207 -0.0241717 0.0592713 0.0287682 -2.26872 -3.44468 2.02729 0.004 300 0 
137 1 1 0.0205467 -0.0339816 0.015452 0 0 0 0.0139483 0.00682044 -0.0104825 -0.0176204 -0.00151315 0.0144401 -3.27472 0.928217 -1.42014 0.004 300 0 
154 1 1 0.0339323 -0.0312417 0.0182177 0 0 0 0.00960407 0.00835939 -0.0175889 0.0287583 0.0301801 0.00463272 0.384368 -0.900126 1.03449 0.004 300 0 
52 1 1 -0.0319762 -0.0252856 0.0157893 0 0 0 -0.0148424 0.0290111 -0.00188189 -0.00682323 -0.0452633 0.0274927 3.16561 4.19459 1.85505 0.004 300 0 
80 1 1 -0.0096295 -0.0267638 0.0177478 0 0 0 0.00426446 0.0273425 -0.0318588 -0.0525934 0.0744525 -0.0474471 -1.87545 5.18246 -1.92827 0.004 300 0 
125 1 1 -0.00147092 -0.0272791 0.0177336 0 0 0 0.0702177 0.0355833 -0.0224047 0.0163825 -0.00344896 0.0202239 -0.826191 2.75148 2.19841 0.004 300 0 
72 1 1 0.0181105 -0.0264622 0.0162714 0 0 0 -0.00843015 0.000534225 -0.0142553 -0.0200578 0.0163306 0.0114999 -0.0663446 1.29631 8.18997 0.004 300 0 
34 1 1 0.0267876 -0.0289454 0.0159211 0 0 0 0.011056 -0.0027335 -0.0323118 0.0186512 0.00345144 0.0417759 -3.57235 -1.90927 0.561335 0.004 300 0 
218 1 1 -0.0394612 -0.0236922 0.017907 0 0 0 -0.0199894 0.0280427 -0.0319301 -0.0448819 0.0302956 -0.0527305 3.1827 1.14724 -0.844516 0.004 300 0 
70 1 1 -0.0247996 -0.0227449 0.0182045 0 0 0 0.00160537 -0.0145486 0.00329557 0.0110222 -0.00770727 -0.00303047 -3.19675 5.18827 -1.38974 0.004 300 0 
132 1 1 -0.0171085 -0.0241343 0.0164051 0 0 0 -0.00406907 -0.0116938 0.0126532 -0.0237746 0.001746 -0.0120991 3.45909 -0.638373 0.620445 0.004 300 0 
86 1 1 -0.00515288 -0.0202906 0.0186367 0 0 0 -0.00174041 0.00958745 -0.0251758 0.0476887 0.00113361 -0.0122658 0.975645 -2.29718 1.27335 0.004 300 0 
196 1 1 0.00612988 -0.0246037 0.0179161 0 0 0 0.0498411 -0.0108696 -0.0616913 -0.0756505 0.013387 -0.0521519 0.950351 8.13728 0.355709 0.004 300 0 
129 1 1 0.0129138 -0.0203565 0.0169433 0 0 0 0.0334991 0.0547404 -0.0718502 -0.00667275 0.0152846 0.00839585 -7.38156 3.42662 0.260041 0.004 300 0 
362 1 1 0.0242864 -0.0215707 0.0174468 0 0 0 -0.00183238 -0.00616563 -0.0251205 0.00497189 -0.00256566 -0.00454105 7.2071 -3.44467 -1.99779 0.004 300 0 
49 1 1 0.0387216 -0.0249452 0.0180903 0 0 0 0.00652126 0.00996459 -0.0057612 0.0138953 0.0131728 -0.00473609 2.61343 -1.76383 -0.897483 0.004 300 0 
173 1 1 -0.0429909 -0.016543 0.0180871 0 0 0 -0.0125232 0.0253132 -0.0099274 0.00994175 0.00188981 -0.00369307 3.76903 1.97376 -0.734116 0.004 300 0 
50 1 1 -0.0292469 -0.0162001 0.018583 0 0 0 -0.0149875 -0.0248996 -0.046148 -0.0159884 0.00611571 0.00904098 0.129233 -1.1163 3.55845 0.004 300 0 
202 1 1 -0.0136286 -0.0169851 0.016838 0 0 0 -0.0195918 -0.0104073 -0.0381657 -0.00312964 -0.0286628 -0.0154889 -3.22627 1.82813 1.21024 0.004 300 0 
42 1 1 0.0193126 -0.0154401 0.016889 0 0 0 0.0185381 0.0133661 -0.00434574 -0.0132218 0.000330457 -0.00137402 -0.942295 2.84261 -0.942397 0.004 300 0 
82 1 1 0.0289732 -0.015293 0.0160541 0 0 0 0.00625587 -0.00143964 -0.00849785 0.0013028 -0.00400196 -0.0148053 2.79384 3.50188 -1.55182 0.004 300 0 
1 1 1 0.042423 -0.0179259 0.0179575 0 0 0 0.00544304 0.0166133 0.0124384 0.00876922 0.0129145 -0.00714792 -3.42419 1.71553 -0.679652 0.004 300 0 
168 1 1 -0.0222678 -0.0130672 0.0164131 0 0 0 -0.0103152 -0.00171893 -0.00328104 -0.0136184 -0.00696552 -0.0164802 0.0028776 -0.12328 1.1503 0.004 300 0 
121 1 1 -0.00542859 -0.0124882 0.0173687 0 0 0 0.0166748 0.0151049 -0.0136926 -0.0130992 0.00081104 0.0198484 1.32843 -3.2158 -0.250688 0.004 300 0 
28 1 1 0.00735674 -0.014846 0.0187041 0 0 0 0.00929378 0.00633887 -0.0230009 0.0136453 -0.00183035 0.00560851 -6.36032 -0.264683 1.30723 0.004 300 0 
56 1 1 0.0135423 -0.0100196 0.0172109 0 0 0 0.0160108 0.0112325 -0.00678459 -0.0171178 0.00124603 0.0357017 -0.842687 -0.2676 -0.922225 0.004 300 0 
60 1 1 0.0374168 -0.0118595 0.016577 0 0 0 -0.00131848 0.00855831 -0.00280444 0.00140733 -0.0111307 -0.000374695 0.049235 -0.417921 -1.29126 0.004 300 0 
135 1 1 -0.0446005 -0.00869259 0.0181388 0 0 0 0.00355145 0.0239274 -0.00901459 -0.0279122 -0.0315866 -0.0167261 3.76711 7.15345 -1.98915 0.004 300 0 
190 1 1 -0.0287666 -0.00846434 0.0169297 0 0 0 -0.0303744 -0.0136806 -0.0112728 -0.00455273 0.00888912 -0.0120214 6.1895 -5.40472 2.68944 0.004 300 0 
7 1 1 -0.0198081 -0.00552122 0.0165885 0 0 0 0.0116091 -0.0141848 -0.0230138 0.00474078 -0.00629131 0.00775794 -4.14019 -0.739692 -0.96687 0.004 300 0 
145 1 1 -0.0117203 -0.00793065 0.0160061 0 0 0 0.0113073 0.000208851 9.72636e-05 -0.00281314 0.0133728 0.0046583 -0.526434 3.84159 1.82876 0.004 300 0 
186 1 1 0.00171675 -0.00915589 0.0169537 0 0 0 0.0131458 0.00986799 -0.00681874 -0.00667899 0.00749774 0.0114862 0.621259 -0.180633 0.248279 0.004 300 0 
191 1 1 0.021586 -0.0071698 0.0171031 0 0 0 0.0246888 -0.0123235 -0.0114398 -0.0104962 -0.0287211 0.00369137 -0.195608 -1.37015 1.91733 0.004 300 0 
208 1 1 0.0308153 -0.00554762 0.0174512 0 0 0 0.0423221 -0.00237221 -0.00190336 0.00564474 0.00916323 -0.00125414 0.0715618 -0.52677 2.11997 0.004 300 0 
92 1 1 0.0450241 -0.00954953 0.017196 0 0 0 0.00322015 0.0101608 -0.0186158 0.0004574 0.00640375 -0.00558863 -4.66191 1.53676 2.55375 0.004 300 0 
192 1 1 -0.0460541 -0.000537096 0.0177195 0 0 0 0.00921586 -0.0156048 0.00503698 0.00639899 0.0388672 -0.051332 5.58993 3.12058 -4.7084 0.004 300 0 
87 1 1 -0.0391126 -0.00372021 0.0152092 0 0 0 -0.00147929 0.0231889 -0.0130359 0.0220418 0.0295981 0.0219853 5.27947 0.608176 -3.75868 0.004 300 0 
462 1 1 -0.0264653 -0.000926058 0.0178942 0 0 0 -0.0318875 -0.00866502 -0.00212224 -0.0210935 -0.00779137 -0.00233002 2.15383 -6.61217 -8.80257 0.004 300 0 
450 1 1 -0.0121067 -0.000801534 0.0193831 0 0 0 0.00417755 0.00368849 -0.0140226 -0.00874615 0.000955309 -0.0125748 -0.448949 -5.87911 0.0834009 0.004 300 0 
111 1 1 -0.00532138 -0.00491222 0.0197061 0 0 0 0.0172268 0.0212301 -0.00500404 -0.00401034 0.00854001 0.0172981 -0.0152521 6.70827 4.41063 0.004 300 0 
622 1 1 0.00076924 -0.00116541 0.0162809 0 0 0 0.00104938 0.020942 -0.0430323 -0.000647269 -0.00931482 -0.00582722 3.11767 -0.227453 -0.802613 0.004 300 0 
106 1 1 0.00798719 -0.00448437 0.0160426 0 0 0 0.0116297 0.0163786 -0.00593328 0.00542614 0.0111022 0.00986285 -2.07523 0.567476 1.16203 0.004 300 0 
651 1 1 0.0251422 -5.48098e-05 0.0174303 0 0 0 0.0118519 -0.0194375 -0.0227497 0.0237973 -0.00833694 -0.0047798 -1.84985 -5.70259 6.29856 0.004 300 0 
133 1 1 0.0385194 -0.00365304 0.0165754 0 0 0 0.0501488 0.0118154 0.00988429 0.0114354 0.00453949 -0.0187902 -2.05137 -4.74986 -3.93117 0.004 300 0 
164 1 1 0.0460075 -0.00206649 0.0195892 0 0 0 -0.00206772 -0.00201057 -0.0014816 0.00496477 -0.00528046 0.000244614 7.68488 -1.61178 -1.83893 0.004 300 0 
127 1 1 -0.00237052 -0.0460206 0.0243526 0 0 0 0.0195751 -0.00414292 -0.0218376 -0.00033753 0.0271122 -0.00736045 -3.26039 -1.63975 -5.4127 0.004 300 0 
126 1 1 -0.0157636 -0.0433107 0.0214318 0 0 0 -0.0113282 0.011094 -0.0474946 0.018664 0.0420347 0.0478467 -1.48782 10.8093 1.53968 0.004 300 0 
371 1 1 -0.00741096 -0.0400109 0.0232686 0 0 0 0.0588696 0.0382891 -0.016235 -0.0512773 0.0222682 0.0158463 4.14476 4.92361 3.51051 0.004 300 0 
143 1 1 0.00444509 -0.0421067 0.0232713 0 0 0 0.0129678 0.0179052 -0.0015822 -0.0108706 -0.0026811 -0.02086 9.17017 -5.53961 1.19543 0.004 300 0 
110 1 1 -0.0278606 -0.036676 0.02347 0 0 0 0.030588 -0.036389 0.00456001 0.0266067 -0.00963206 -0.00620835 -0.341641 0.884076 -0.412599 0.004 300 0 
114 1 1 0.0111053 -0.0377125 0.0231672 0 0 0 0.0081758 0.0238836 -0.0251149 0.0335012 -0.0160344 0.0266854 -6.50315 5.91442 -1.90627 0.004 300 0 
22 1 1 -0.0333052 -0.031828 0.0200288 0 0 0 0.0909225 -0.0720585 -0.0812533 0.0571426 -0.0261568 0.0525399 -0.140694 -1.81398 -3.49427 0.004 300 0 
85 1 1 -0.0161466 -0.0305006 0.0210872 0 0 0 -0.0124768 -0.0174593 -0.0278533 0.0282105 0.010329 -0.0542627 -1.47286 -1.99992 -0.297536 0.004 300 0 
390 1 1 -0.00872828 -0.0321678 0.0234242 0 0 0 -0.00459948 0.0334517 -0.0273556 -0.00187507 0.011906 -0.00494631 0.689197 -3.49443 1.22885 0.004 300 0 
271 1 1 0.0224717 -0.0305839 0.0223588 0 0 0 0.0243048 0.0261013 -0.0185153 0.00263374 0.0101123 0.0179795 0.120579 0.883596 -0.836454 0.004 300 0 
134 1 1 -0.0265032 -0.0288842 0.0230164 0 0 0 0.0195667 -0.0359758 0.00885206 0.0126043 -0.0115041 -0.00424237 3.11895 2.59822 -0.0415028 0.004 300 0 
51 1 1 -0.031105 -0.0224445 0.0231124 0 0 0 0.0394324 -0.0188658 0.00692598 0.00452968 0.00377902 0.0395725 -5.23061 -0.122185 -0.495999 0.004 300 0 
204 1 1 -0.0133199 -0.0225334 0.0233366 0 0 0 0.0132027 -0.0170192 0.0196716 -0.0522116 -0.024099 -0.00627336 -3.02821 -5.71789 -2.34048 0.004 300 0 
25 1 1 0.0104822 -0.0240736 0.0244841 0 0 0 0.0170157 0.0502118 -0.0566693 0.0595628 0.0488648 0.00644113 0.373013 -12.7102 3.98437 0.004 300 0 