ITEM: TIMESTEP
25600
ITEM: NUMBER OF ATOMS
890
ITEM: BOX BOUNDS mm mm mm
-0.05 0.05
-0.05 0.05
0 0.15
ITEM: ATOMS id type type x y z ix iy iz vx vy vz fx fy fz omegax omegay omegaz radius f_Temp[0] f_heatFlux[0] 
59 1 1 -0.000715559 -0.0460982 0.00395596 0 0 0 3.83433e-06 6.61261e-09 -2.78245e-06 5.47791e-06 -1.05439e-07 4.34205e-06 -0.000358132 0.000209656 -0.000117837 0.004 517.205 5.66929 
170 1 1 -0.0173498 -0.0426414 0.00397299 0 0 0 1.08366e-06 -1.13696e-06 -6.75062e-07 7.67319e-06 4.39312e-06 1.01608e-05 0.000340305 0.000631819 -0.000646624 0.004 335.087 7.36613 
15 1 1 -0.00975017 -0.0449638 0.00393394 0 0 0 2.98502e-06 -5.46252e-06 -7.8911e-06 8.8248e-06 6.39839e-06 4.68401e-06 0.00101389 0.00152505 -0.000583067 0.004 371.422 9.22912 
116 1 1 0.0064876 -0.0428197 0.00395866 0 0 0 5.41631e-06 2.24317e-06 -7.44248e-06 6.86521e-06 9.89104e-06 5.04919e-06 -0.00252043 0.000749021 -0.000413193 0.004 650.17 -4.77492 
158 1 1 0.0143627 -0.0437626 0.00389979 0 0 0 5.79502e-06 -1.10784e-06 -7.30115e-06 3.93415e-06 5.2888e-06 2.42053e-06 0.000600955 0.000806822 0.000174407 0.004 730.123 -9.14946 
98 1 1 0.0216779 -0.0406527 0.0039426 0 0 0 3.04128e-06 2.22074e-06 -3.71142e-06 5.22591e-06 4.93892e-06 -7.04259e-07 -0.000324412 -0.000145365 -0.000149784 0.004 772.019 -6.75322 
169 1 1 -0.0244315 -0.0390659 0.00391424 0 0 0 -3.00745e-06 5.93532e-07 1.11093e-06 5.37529e-06 2.23485e-06 3.04432e-06 -3.94808e-05 -0.0004992 0.000792642 0.004 312.331 3.895 
89 1 1 -0.011812 -0.0369235 0.00395456 0 0 0 -1.08655e-07 -1.61835e-06 -5.98782e-06 1.07281e-05 3.01948e-06 1.43661e-05 0.000718785 0.0018355 0.00090422 0.004 373.093 7.87947 
152 1 1 -0.00418345 -0.0390223 0.00390516 0 0 0 3.43733e-06 6.79457e-07 -1.41379e-05 1.57274e-05 5.59216e-06 1.33968e-05 -0.00159565 0.000448732 0.000461998 0.004 465.263 6.05659 
23 1 1 0.0153483 -0.0358821 0.00391125 0 0 0 6.38447e-06 5.85243e-06 -1.30016e-05 9.43612e-06 1.29389e-05 5.58697e-06 -0.00214309 0.000343846 -0.000674254 0.004 744.596 -9.37171 
118 1 1 -0.0307533 -0.0342397 0.00392722 0 0 0 -1.28987e-06 1.40233e-06 2.07637e-06 5.71529e-06 1.74662e-06 2.56779e-06 -9.88842e-06 -0.000172812 -0.000712678 0.004 302.851 1.34371 
30 1 1 -0.0188788 -0.0333717 0.00395269 0 0 0 -6.92932e-06 -3.4027e-07 -6.22817e-07 6.92763e-06 1.41041e-06 8.38105e-06 -0.000431219 -0.000980771 -0.000516923 0.004 323.733 5.11774 
215 1 1 -0.00603634 -0.0313238 0.00390652 0 0 0 4.43513e-06 -7.28566e-06 -1.62551e-05 1.80244e-05 3.07319e-06 1.91606e-05 0.00185451 0.000771507 0.000772739 0.004 428.004 8.57524 
74 1 1 0.00184138 -0.0338192 0.00390671 0 0 0 6.38606e-06 5.48384e-06 -1.91762e-05 1.24979e-05 2.74714e-06 1.65306e-05 -0.000522182 0.000391557 -0.000783862 0.004 561.329 -1.23357 
24 1 1 0.00917855 -0.0308342 0.00392027 0 0 0 6.44435e-06 9.47493e-06 -2.03906e-05 8.9735e-06 1.23339e-05 1.40786e-05 -0.000642884 -0.000175435 0.00080775 0.004 689.69 -8.9504 
198 1 1 0.0259423 -0.0339524 0.0039555 0 0 0 3.53492e-06 7.87944e-06 -6.52624e-06 -9.57376e-07 1.58948e-05 -9.8055e-07 -0.00263303 -0.000550257 -0.000542491 0.004 790.281 -3.52436 
161 1 1 0.0335301 -0.0316074 0.00391357 0 0 0 4.13776e-06 3.80728e-06 -4.24406e-06 2.04658e-06 1.2517e-05 4.04297e-07 -0.00076222 0.000236206 -0.00092321 0.004 796.985 -1.46767 
8 1 1 -0.0322699 -0.0264156 0.00398401 0 0 0 -8.11728e-07 4.47859e-06 2.96902e-06 6.13659e-06 6.40817e-07 5.22539e-06 -0.000315698 0.000834778 0.00061146 0.004 302.081 1.01864 
12 1 1 -0.0244144 -0.0276959 0.00386429 0 0 0 -5.11925e-06 3.60953e-06 -8.75964e-07 9.09309e-06 9.23179e-06 1.33272e-05 0.000292487 -0.000350072 -0.00113319 0.004 308.895 3.03271 
188 1 1 -0.0131743 -0.0277762 0.00396581 0 0 0 -2.85485e-06 -3.90007e-06 -6.5518e-06 1.00574e-05 -6.09684e-06 1.66261e-05 -0.000464539 -0.000250851 -0.000561756 0.004 337.295 6.96312 
77 1 1 -0.000100296 -0.0260809 0.00389407 0 0 0 -6.51995e-06 7.95204e-06 -2.16887e-05 1.60372e-05 2.13846e-06 1.7676e-05 -0.00233936 -0.00085465 0.00388268 0.004 534.103 1.50601 
113 1 1 0.0165643 -0.0280203 0.00388655 0 0 0 7.89234e-06 1.09707e-05 -1.57595e-05 2.62161e-06 1.79413e-05 4.70211e-06 -0.000204114 0.00015117 -0.000524388 0.004 755.959 -7.9354 
183 1 1 0.0384541 -0.0253742 0.00393847 0 0 0 5.60914e-06 1.4785e-06 -4.31031e-06 2.98671e-06 7.42629e-06 1.25418e-06 -0.000294649 -0.000284933 -0.000576894 0.004 799.131 -0.532743 
162 1 1 -0.0396312 -0.023418 0.00390781 0 0 0 3.76308e-07 4.72838e-06 5.01953e-06 4.68565e-06 -2.02924e-06 3.29165e-06 -0.000886195 -0.000188335 -0.000116064 0.004 300.486 0.313487 
53 1 1 -0.0272061 -0.0202486 0.00395161 0 0 0 -7.18165e-06 1.09921e-05 2.40023e-06 -8.74642e-06 1.65295e-05 7.79304e-06 -0.00140737 -0.00139325 0.00109013 0.004 304.229 1.77028 
148 1 1 -0.0187585 -0.0220642 0.00393804 0 0 0 -4.24232e-06 4.2352e-07 -6.66699e-06 1.72891e-05 2.56656e-06 1.9612e-05 -0.000521301 -0.000424137 -0.000315483 0.004 317.589 5.06307 
195 1 1 -0.00727819 -0.02155 0.00394555 0 0 0 1.72552e-05 1.83037e-05 -1.97163e-05 9.20811e-06 -1.92742e-05 1.68527e-05 -0.00161386 0.00485477 0.00602496 0.004 392.14 10.9582 
179 1 1 0.00736626 -0.0231031 0.00394267 0 0 0 1.96202e-06 1.36059e-05 -1.93403e-05 8.8161e-06 1.30961e-05 1.33633e-05 -0.00179014 0.00160424 -2.47711e-05 0.004 694.218 -10.3545 
95 1 1 0.0148506 -0.02031 0.00393205 0 0 0 1.02871e-05 1.78654e-05 -2.69887e-05 1.88706e-07 1.52672e-05 8.24872e-06 -0.00224076 0.000824754 0.00103645 0.004 752.269 -8.13694 
76 1 1 0.0230027 -0.0233058 0.00397471 0 0 0 1.35077e-05 1.43222e-05 -8.88838e-06 2.60844e-06 2.66484e-05 2.63884e-06 -0.0021247 0.00299798 0.00107825 0.004 790.953 -3.09343 
100 1 1 0.0325586 -0.0200896 0.00388593 0 0 0 1.9788e-05 9.47991e-06 -8.95705e-06 6.87735e-06 2.11325e-05 7.30199e-06 -0.0024498 0.00385302 -0.00222901 0.004 798 -1.00525 
65 1 1 -0.0430742 -0.0162802 0.00393143 0 0 0 1.62766e-06 5.79881e-06 4.33982e-06 3.86147e-06 -1.90345e-06 1.75096e-06 -0.000544135 0.000524227 0.000728765 0.004 300.189 0.140287 
102 1 1 -0.0351584 -0.0155177 0.00394443 0 0 0 -3.34186e-06 1.7856e-05 1.12762e-05 1.83062e-06 -3.20014e-06 8.51491e-06 -0.00459173 -0.00152152 0.000474908 0.004 300.864 0.505915 
213 1 1 -0.0132589 -0.0162738 0.00397356 0 0 0 -6.99956e-06 4.43898e-06 -8.71853e-06 2.58588e-05 -5.51645e-06 1.49772e-05 0.00135449 -0.00164829 -0.00053896 0.004 333.539 7.71527 
10 1 1 0.00114839 -0.0182524 0.00474991 0 0 0 -2.22218e-06 2.31638e-05 -2.53248e-05 1.54615e-05 3.06628e-06 1.74185e-05 0.00441157 -0.00414273 -0.00275238 0.004 582.246 -3.48101 
5 1 1 0.00879789 -0.0152554 0.00390307 0 0 0 1.43936e-05 2.03745e-05 -3.10946e-05 4.44005e-06 1.48334e-05 1.57796e-05 -0.000680079 0.00273337 -0.000811878 0.004 701.052 -8.42992 
96 1 1 0.0211693 -0.0155243 0.00395647 0 0 0 1.49303e-05 1.84017e-05 -1.5812e-05 -2.34586e-06 1.55433e-05 8.56629e-06 -0.0025061 -0.000448454 -0.0028296 0.004 786.825 -3.85705 
167 1 1 0.0421923 -0.0183683 0.00392112 0 0 0 6.04858e-06 1.55339e-06 -1.19914e-06 3.59004e-07 5.61523e-06 7.72109e-07 -1.03415e-05 0.00111417 -0.000181019 0.004 799.827 -0.133052 
124 1 1 -0.0290111 -0.0104715 0.00394785 0 0 0 -5.06904e-06 1.82217e-05 4.80936e-06 1.46801e-05 2.36152e-06 1.13474e-05 -0.00200995 -0.00194419 -0.000321564 0.004 303.624 1.5936 
220 1 1 -0.021776 -0.0144543 0.00398039 0 0 0 -1.00353e-05 2.07668e-05 7.86146e-07 -1.0458e-05 1.08483e-05 7.73166e-06 -0.00450525 -0.00311882 7.89578e-05 0.004 313.087 3.68638 
144 1 1 -0.00535521 -0.0138038 0.00388163 0 0 0 4.10282e-06 2.68487e-05 -2.87254e-05 1.02534e-05 -5.40847e-06 2.51986e-05 -0.00402164 0.00122239 0.0005595 0.004 470.01 5.84738 
26 1 1 0.0025557 -0.0104629 0.00390557 0 0 0 1.25377e-05 2.85272e-05 -2.66063e-05 5.08281e-06 3.43518e-06 1.65224e-05 -0.00697751 0.000883185 -0.000255047 0.004 588.464 -2.79021 
194 1 1 0.0287352 -0.0131031 0.00393077 0 0 0 2.16048e-05 1.39206e-05 -1.38485e-05 4.49086e-06 2.03229e-05 8.07863e-06 -0.0022343 0.0027671 0.00179234 0.004 796.75 -1.42865 
37 1 1 0.03667 -0.0122308 0.00393303 0 0 0 2.60131e-05 7.73281e-06 -1.35385e-05 4.44664e-06 2.4982e-05 6.17013e-06 -0.00103439 0.00465363 -0.00318356 0.004 799.523 -0.299005 
219 1 1 0.0447285 -0.0108715 0.00390888 0 0 0 5.94012e-06 7.96421e-07 -3.26885e-07 -8.33725e-07 1.93267e-06 -7.83262e-07 0.000566409 0.00141166 0.000243563 0.004 799.958 -0.0391517 
636 1 1 -0.0451998 -0.00864274 0.0039177 0 0 0 8.03993e-06 5.34788e-06 5.72599e-06 2.3007e-06 -1.60188e-06 -1.00248e-06 -0.000351497 0.00122487 -0.00232513 0.004 300.052 0.0457051 
39 1 1 -0.0161467 -0.00885101 0.00388976 0 0 0 -2.03885e-06 2.01682e-05 -1.02515e-05 1.6006e-05 -9.39829e-06 2.01789e-05 -0.00201589 0.000593123 -0.00124238 0.004 343.629 6.80498 
171 1 1 -0.00395989 -0.00597827 0.0039203 0 0 0 7.97277e-06 2.63334e-05 -3.16783e-05 5.97124e-06 -1.08348e-06 2.28723e-05 -0.00149041 0.000271241 -0.00145481 0.004 480.148 5.70044 
200 1 1 0.0146298 -0.00986521 0.00396372 0 0 0 2.41727e-05 2.60818e-05 -2.35316e-05 -3.00752e-06 1.46302e-05 1.2269e-05 -0.00232702 0.00178653 -0.000954392 0.004 759.093 -7.29659 
21 1 1 0.022252 -0.00762165 0.00394331 0 0 0 2.4319e-05 2.28868e-05 -2.63727e-05 -4.95878e-06 1.39843e-05 8.81151e-06 -0.00333545 0.00286745 0.000493251 0.004 788.933 -3.4629 
17 1 1 0.0298456 -0.00520721 0.00394871 0 0 0 2.34898e-05 1.59703e-05 -2.53414e-05 -6.19087e-07 1.52676e-05 7.30331e-06 -0.00238365 0.00335613 -0.00226664 0.004 797.237 -1.31204 
477 1 1 -0.0445832 -0.000710798 0.00396285 0 0 0 1.11387e-05 9.13293e-06 7.28031e-06 3.46234e-06 -1.8198e-06 -2.8543e-06 -0.00105269 0.00232171 0.00365179 0.004 300.075 0.057297 
140 1 1 -0.0352673 -0.0037182 0.00387245 0 0 0 7.38286e-06 2.60167e-05 1.90132e-05 1.31897e-05 -1.04418e-05 1.98472e-06 -0.00414983 0.00106539 -0.000799283 0.004 301.545 0.758343 
119 1 1 -0.0273892 -0.00269827 0.00396385 0 0 0 3.90406e-06 2.0604e-05 6.69854e-06 1.32307e-05 -7.25067e-06 6.32327e-06 -0.00152253 0.00127757 -0.00036245 0.004 307.029 2.46877 
207 1 1 -0.0194912 -0.00168721 0.00389498 0 0 0 4.86199e-06 2.42335e-05 -3.74205e-06 1.25956e-05 -5.71332e-06 2.07905e-05 -0.00272887 0.00185133 0.000305049 0.004 326.453 5.88918 
69 1 1 -0.0111573 -0.00264546 0.00392995 0 0 0 5.05805e-06 2.40608e-05 -1.47086e-05 6.71003e-06 -5.52294e-06 1.97947e-05 -0.00181758 0.000868972 0.000618821 0.004 381.411 9.4276 
221 1 1 0.00874805 -0.00448989 0.00393193 0 0 0 2.93417e-05 3.03914e-05 -2.71609e-05 -3.1482e-06 8.38428e-06 1.23879e-05 -0.00793772 0.0040924 0.00214858 0.004 717.277 -8.54002 
457 1 1 0.0163505 -0.00208061 0.00395923 0 0 0 2.41934e-05 2.63878e-05 -2.89558e-05 -6.6975e-06 1.20514e-05 7.30294e-06 0.000895978 0.0024605 0.00124752 0.004 772.058 -6.64752 
155 1 1 0.0378912 -0.0022469 0.00393689 0 0 0 2.67793e-05 5.76753e-06 -1.51956e-05 -3.77575e-07 1.92093e-05 9.4931e-06 -0.00104266 0.00614678 0.00318584 0.004 799.513 -0.299229 
665 1 1 0.0459183 -0.00307627 0.00394259 0 0 0 8.68517e-06 2.09468e-06 -1.7309e-06 -2.86263e-06 -8.23614e-08 3.50714e-06 -0.000843091 0.00210484 -0.00103606 0.004 799.943 -0.0493756 
120 1 1 0.00918481 -0.0371091 0.00876928 0 0 0 5.51922e-06 1.3706e-05 -2.85471e-05 2.21026e-05 1.27398e-05 1.37464e-05 -0.00108967 -0.00215519 0.000395538 0.004 695.768 -9.21167 
9 1 1 -0.0247148 -0.033359 0.00937614 0 0 0 -8.01392e-06 5.79023e-06 1.52032e-07 1.82755e-05 3.36652e-06 1.01845e-05 -0.00150354 0.000555842 0.000856875 0.004 308.687 3.15036 
101 1 1 -0.0188616 -0.0277191 0.00955134 0 0 0 -4.78625e-06 4.99177e-06 -7.89153e-06 1.47214e-05 -6.48719e-06 2.63035e-05 -0.00215014 0.00103298 0.000182984 0.004 318.435 5.11707 
48 1 1 0.0221998 -0.0293139 0.00920029 0 0 0 9.73624e-06 1.8998e-05 -2.28411e-05 7.66224e-06 3.25051e-05 -3.53366e-06 -0.000386692 0.000561525 0.00135375 0.004 781.342 -4.90077 
75 1 1 0.02936 -0.0261746 0.0078742 0 0 0 1.26147e-05 1.7569e-05 -1.1337e-05 4.73218e-06 2.74013e-05 2.72364e-06 0.000341773 -0.00192537 -0.00260677 0.004 795.281 -1.89321 
46 1 1 -0.0327914 -0.0205809 0.00958338 0 0 0 -1.62008e-06 1.92931e-05 2.01297e-05 7.25481e-06 6.94176e-06 2.12189e-05 0.00211433 0.00545632 -0.00347951 0.004 302.198 1.06988 
33 1 1 -0.0130341 -0.0220248 0.00949552 0 0 0 8.91463e-06 1.16935e-05 -2.85991e-05 2.20877e-05 -1.76624e-05 3.16355e-05 -0.00247981 0.00815358 0.00327034 0.004 344.636 6.77641 
11 1 1 0.02689 -0.0187448 0.00924457 0 0 0 2.66299e-05 2.70074e-05 -2.27018e-05 -1.99338e-06 2.92925e-05 1.32637e-05 -0.00153912 -0.0043333 -0.0022511 0.004 793.848 -2.32562 
71 1 1 -0.0372752 -0.00954691 0.00876618 0 0 0 6.94649e-06 2.79426e-05 2.22684e-05 9.63848e-06 -5.7068e-06 -2.84564e-06 0.00438634 0.00209042 -0.00250882 0.004 300.545 0.337129 
62 1 1 -0.0228083 -0.00771362 0.00814025 0 0 0 -5.01395e-07 3.06397e-05 -2.17364e-06 2.49154e-05 6.0408e-08 1.56512e-05 0.00132336 0.00282686 -0.00131075 0.004 313.798 3.93465 
19 1 1 -0.00970684 -0.00905629 0.00849042 0 0 0 6.2406e-06 4.03115e-05 -3.62805e-05 1.86841e-05 -7.87888e-06 3.85506e-05 -0.000403158 0.00262627 0.0012044 0.004 424.036 7.0256 
187 1 1 0.00796716 -0.00988211 0.0097574 0 0 0 8.56345e-05 2.62398e-05 -4.39866e-05 -4.95223e-05 3.33896e-05 2.96337e-05 0.00812506 0.0178373 -0.00864676 0.004 716.633 -11.5422 
157 1 1 0.0395817 -0.00751955 0.00963109 0 0 0 4.26488e-05 1.17982e-05 -2.19898e-05 1.20768e-07 2.43443e-05 1.17664e-05 -0.00190867 -0.00227759 -0.00242937 0.004 799.832 -0.126208 
18 1 1 0.00229106 -0.00404899 0.00852619 0 0 0 2.69528e-05 5.80233e-05 -6.55442e-05 3.82917e-06 -4.68884e-06 3.5342e-05 -0.00426252 -0.00663418 -0.00522304 0.004 584.106 -2.27571 
185 1 1 -0.00531153 -0.045735 0.0104438 0 0 0 -9.36073e-07 -5.75216e-06 -1.29746e-05 2.73214e-05 4.53961e-06 5.98472e-06 -0.00109715 -0.00343258 0.000722395 0.004 453.129 6.2139 
83 1 1 0.00256731 -0.0459473 0.011266 0 0 0 8.2261e-07 1.40491e-06 -2.18396e-05 2.3431e-05 -5.04741e-06 1.11432e-05 -0.00580617 0.00562534 0.000131273 0.004 589.179 -6.96267 
58 1 1 -0.0218569 -0.0405821 0.0112769 0 0 0 -6.1319e-06 3.61949e-06 8.32979e-07 2.16639e-05 -1.14318e-05 8.39692e-07 0.000116116 8.04154e-05 0.00113305 0.004 313.812 4.53803 
105 1 1 -0.0135861 -0.043966 0.0108787 0 0 0 8.6177e-06 -2.21438e-06 -9.55931e-06 5.95838e-05 -2.33428e-05 1.56049e-05 -0.00201276 0.00235253 -0.00168006 0.004 336.873 8.43226 
223 1 1 0.0103956 -0.0448674 0.0106706 0 0 0 2.88638e-06 2.77433e-06 -2.7e-05 1.77853e-05 3.56012e-06 1.25893e-05 -0.00499191 -0.00501108 0.000441526 0.004 689.809 -10.4173 
217 1 1 0.0179432 -0.0424254 0.0108281 0 0 0 8.62348e-06 4.84729e-06 -1.71003e-05 1.4766e-05 9.24678e-06 -7.15235e-06 -0.00433675 -0.0011521 -0.0016868 0.004 750.739 -8.80859 
6 1 1 -0.0162616 -0.0350311 0.0113113 0 0 0 -2.17227e-06 -1.94885e-06 -1.82089e-05 2.9703e-05 -8.20925e-06 1.40009e-05 0.00145074 0.00766814 -0.00309365 0.004 334.311 7.20943 
151 1 1 -0.00801315 -0.0382603 0.0108113 0 0 0 8.12672e-06 -6.95578e-06 -2.28138e-05 4.09551e-05 -2.04685e-06 2.52311e-05 0.00172332 0.000360346 -0.000692338 0.004 401.841 9.1105 
2 1 1 0.000443846 -0.038308 0.0102709 0 0 0 4.41389e-06 7.48333e-06 -3.23195e-05 3.23018e-05 -2.61734e-06 2.16025e-05 9.44053e-05 0.000922566 -0.00132975 0.004 547.83 -0.341621 
117 1 1 0.0249196 -0.0387267 0.0109177 0 0 0 8.18969e-06 3.9444e-06 -1.05321e-05 8.948e-06 1.10159e-05 -1.05112e-05 -0.00129851 -0.000381849 -0.000880057 0.004 783.207 -4.88469 
13 1 1 -0.0323456 -0.0327547 0.011537 0 0 0 -1.16076e-06 7.79821e-06 5.50939e-06 1.36808e-05 -1.23084e-06 1.00332e-05 -0.000476316 0.000351135 -0.000762029 0.004 302.806 1.37548 
193 1 1 -0.00982593 -0.0305006 0.0107682 0 0 0 -1.98402e-06 -7.20816e-07 -4.54352e-05 3.47991e-05 -3.47432e-06 4.94101e-05 -0.0080958 -0.00356429 0.00358373 0.004 389.823 9.83682 
47 1 1 -0.0013377 -0.0305434 0.0103846 0 0 0 -1.16605e-06 4.69759e-06 -4.24473e-05 4.18454e-05 2.0879e-06 5.29819e-05 0.000995373 -0.00341844 0.0032321 0.004 522.486 2.97147 
153 1 1 0.00656455 -0.0300231 0.011366 0 0 0 7.00638e-06 2.33034e-05 -5.28724e-05 2.64465e-05 1.56815e-05 3.83005e-05 -0.000305432 -0.00125212 -0.00168059 0.004 654.445 -7.20883 
41 1 1 0.0148076 -0.0317915 0.0106539 0 0 0 6.70729e-06 1.92033e-05 -3.72896e-05 1.77628e-05 2.61367e-05 1.34982e-05 -0.00180287 -0.00202279 3.61992e-05 0.004 748.798 -9.03006 
163 1 1 0.0311565 -0.0339183 0.0111114 0 0 0 7.97464e-06 5.01243e-06 -1.02939e-05 5.29388e-06 1.40598e-05 -1.94319e-06 -0.000422393 -0.000829393 8.29242e-05 0.004 795.306 -1.93916 
214 1 1 -0.0375016 -0.0268265 0.0107139 0 0 0 -2.37252e-06 9.72294e-06 1.03678e-05 8.87019e-06 -1.88092e-07 1.23185e-05 0.00187957 -0.00215741 0.00238197 0.004 301.166 0.664688 
210 1 1 0.0364694 -0.0280972 0.0111134 0 0 0 7.71666e-06 6.63774e-06 -7.61227e-06 2.43964e-06 1.32703e-05 9.62157e-07 -0.000790309 -0.000416403 -0.000686197 0.004 798.808 -0.650729 
108 1 1 -0.0260917 -0.0246404 0.0109303 0 0 0 -5.37169e-06 8.2258e-06 -1.27486e-07 1.72303e-05 1.2232e-05 2.31865e-05 -0.000858771 0.000727137 0.00122261 0.004 307.206 2.62935 
40 1 1 -0.00551125 -0.0238696 0.0113283 0 0 0 6.1521e-06 1.72057e-05 -5.13788e-05 3.42192e-05 -1.15111e-05 5.02212e-05 0.00388124 -0.00718526 -0.00369139 0.004 448.555 6.84961 
55 1 1 0.00236201 -0.0232851 0.0108246 0 0 0 1.61246e-05 3.64928e-05 -5.88723e-05 2.12296e-05 6.12117e-06 3.26657e-05 -0.00425699 0.0120606 0.00359176 0.004 595.385 -3.21668 
91 1 1 0.0120918 -0.0243837 0.0101854 0 0 0 1.49338e-05 2.30437e-05 -4.63193e-05 1.10692e-05 2.83621e-05 2.31218e-05 -0.00188934 0.0025741 -0.00153021 0.004 730.64 -9.93774 
112 1 1 0.0192794 -0.0205361 0.0105072 0 0 0 2.85682e-05 3.37753e-05 -5.88888e-05 -1.89451e-06 3.3356e-05 1.32072e-05 0.0025235 -0.000728755 -0.000293088 0.004 774.982 -6.33331 
178 1 1 0.0318658 -0.0225254 0.0144788 0 0 0 2.50967e-05 2.24137e-05 -2.36719e-05 5.37574e-06 3.21154e-05 -6.22323e-07 -0.0010329 0.00208941 9.69932e-05 0.004 798.126 -0.941229 
131 1 1 0.0407765 -0.0214683 0.0110513 0 0 0 1.02802e-05 5.97113e-06 -2.63808e-06 8.13104e-07 1.34847e-05 4.80583e-06 0.0002207 -0.000153756 -0.00173349 0.004 799.642 -0.243434 
160 1 1 -0.0414721 -0.0199398 0.0108131 0 0 0 3.54411e-06 8.87852e-06 9.0432e-06 1.29755e-05 2.36806e-06 7.07659e-06 -0.0003206 0.000302326 -0.00173466 0.004 300.276 0.19653 
43 1 1 -0.0361087 -0.0151005 0.0142596 0 0 0 6.93007e-06 3.26458e-05 2.6806e-05 1.61532e-05 1.56677e-05 2.25859e-05 -0.0053551 -0.00188505 0.00460483 0.004 301.182 0.615865 
4 1 1 -0.0270344 -0.0151184 0.0100738 0 0 0 -1.5297e-06 1.99251e-05 1.22381e-06 1.636e-05 1.0977e-05 3.05001e-05 0.000837114 0.0034246 0.00242871 0.004 305.76 2.21741 
104 1 1 -0.0203012 -0.0192301 0.0111974 0 0 0 1.10467e-06 1.84403e-05 -1.43899e-05 2.82394e-05 -5.41566e-06 3.77763e-05 -0.00210316 0.000505341 -0.00210446 0.004 318.321 4.75289 
20 1 1 -0.00745491 -0.0162217 0.0110952 0 0 0 1.46733e-05 3.55502e-05 -5.01356e-05 1.9469e-05 -1.40569e-05 4.1892e-05 -0.000105071 -0.00053744 0.00148646 0.004 440.482 7.2005 
45 1 1 0.000824943 -0.0164512 0.0146043 0 0 0 3.01048e-05 7.06026e-05 -9.02902e-05 1.17749e-05 -1.53736e-05 5.20805e-05 -0.00575815 0.00235397 0.00193283 0.004 564.698 -1.83528 
159 1 1 0.00795155 -0.0177076 0.0113468 0 0 0 2.83934e-05 4.04257e-05 -8.22119e-05 4.55208e-06 2.02809e-05 4.0955e-05 -0.00419817 -0.00183508 -0.0043171 0.004 691.62 -8.29122 
136 1 1 0.0347931 -0.0163372 0.0104655 0 0 0 2.74114e-05 1.92921e-05 -1.99246e-05 -5.38274e-07 3.00112e-05 8.64539e-06 -0.000940293 -0.00446049 -0.00146716 0.004 798.995 -0.58238 
177 1 1 -0.0443275 -0.0125288 0.0108104 0 0 0 5.11897e-06 1.02995e-05 9.85544e-06 4.77605e-06 8.67372e-08 1.68295e-06 0.000663361 -0.00128553 0.00158118 0.004 300.145 0.110373 
139 1 1 -0.0168211 -0.0121091 0.0110435 0 0 0 3.87656e-07 3.43511e-05 -2.50351e-05 3.01866e-05 -9.36259e-06 4.52606e-05 -0.000476752 0.000653658 0.00325077 0.004 335.9 6.49134 
211 1 1 -0.00209551 -0.0104147 0.0103071 0 0 0 8.59361e-06 6.09762e-05 -6.83894e-05 1.52041e-05 -1.13409e-05 4.79092e-05 -0.0016148 0.0010144 0.00251911 0.004 516.399 1.85599 
54 1 1 0.0149154 -0.0138958 0.0108307 0 0 0 3.36462e-05 4.12196e-05 -5.39492e-05 -2.94308e-06 3.13408e-05 3.08798e-05 0.00508009 -0.00457965 0.00166344 0.004 761.247 -7.56914 
84 1 1 0.023272 -0.011801 0.0106601 0 0 0 4.07405e-05 4.32838e-05 -4.79428e-05 -5.62466e-06 2.60733e-05 1.47697e-05 -0.00202218 0.00150673 -0.0020277 0.004 791.039 -3.21965 
180 1 1 0.0438204 -0.0140997 0.0110465 0 0 0 1.53313e-05 3.30108e-06 -3.2961e-06 -3.73972e-07 9.94899e-06 3.77132e-06 -0.000946978 0.000596114 -0.0019288 0.004 799.922 -0.0657619 
103 1 1 0.0174441 -0.00636562 0.0105705 0 0 0 4.92563e-05 5.91277e-05 -5.83215e-05 -4.49942e-06 2.1049e-05 2.48635e-05 -0.00691755 0.000812805 -0.0026944 0.004 774.878 -6.37091 
156 1 1 0.0308891 -0.00946117 0.0106299 0 0 0 3.53686e-05 2.75536e-05 -3.75398e-05 -8.47881e-06 2.69732e-05 1.41728e-05 -0.000417894 -0.00142756 -0.00106791 0.004 797.394 -1.25963 
197 1 1 -0.0457831 -0.00471117 0.0107571 0 0 0 1.54627e-05 9.92104e-06 1.22134e-05 1.87188e-06 -4.32914e-06 -4.06623e-06 0.000110634 -0.0017604 -0.0013413 0.004 300.067 0.055662 
87 1 1 -0.038606 -0.00381144 0.014138 0 0 0 2.50093e-05 4.97969e-05 2.69492e-05 1.17213e-05 -1.7277e-05 -5.04037e-06 -0.00642747 0.0041103 0.00665486 0.004 300.322 0.212526 
130 1 1 -0.0313597 -0.00387371 0.0107774 0 0 0 9.77165e-06 5.70919e-05 3.10018e-05 1.25547e-06 -9.8418e-06 8.15629e-06 -0.0064187 -0.0016377 -0.00480977 0.004 302.158 1.02303 
604 1 1 -0.0224596 -0.000300714 0.0110792 0 0 0 2.30432e-05 5.98695e-05 -2.03185e-06 3.25402e-05 -9.57205e-06 3.79661e-05 -0.00502512 0.00285068 -0.0013654 0.004 320.323 4.77494 
146 1 1 -0.015508 -0.00400716 0.010391 0 0 0 1.54768e-05 4.96707e-05 -1.69383e-05 2.52734e-05 -1.17923e-05 3.89887e-05 -0.0018505 0.00348368 -0.001968 0.004 357.879 7.60986 
57 1 1 -0.00517533 -0.00310594 0.011195 0 0 0 2.03303e-05 8.13963e-05 -8.1239e-05 8.53166e-06 -1.04217e-05 5.41993e-05 -0.0120667 0.00591974 0.00138413 0.004 479.182 5.53819 
493 1 1 0.0116957 -0.000875005 0.0103664 0 0 0 6.28724e-05 7.91447e-05 -7.25217e-05 -5.24238e-06 9.67094e-06 2.40539e-05 0.000665416 0.00420672 -0.00158194 0.004 740.628 -9.41672 
31 1 1 0.0250484 -0.0040542 0.01046 0 0 0 5.35313e-05 4.24395e-05 -5.48032e-05 -6.58213e-06 2.38035e-05 1.07804e-05 -0.000406901 0.000798363 -0.00212785 0.004 791.304 -3.11016 
588 1 1 0.0325999 -0.0017453 0.010543 0 0 0 4.273e-05 2.35698e-05 -3.84338e-05 -6.84045e-06 2.56936e-05 1.38756e-05 -0.000741154 -0.00137812 -0.00237858 0.004 797.263 -1.29197 
63 1 1 0.045924 -0.00327882 0.0119252 0 0 0 2.15902e-05 6.9701e-06 -9.23879e-06 8.53778e-07 9.89142e-06 7.79783e-06 -0.000620739 -0.0022944 -0.000605567 0.004 799.896 -0.0804988 
107 1 1 -0.00850645 -0.045273 0.0176769 0 0 0 -5.27561e-06 -6.53337e-07 -2.65783e-05 3.92676e-05 -6.16347e-07 2.82128e-05 -0.00507953 0.00341998 0.00279543 0.004 427.201 8.56053 
222 1 1 -0.00141974 -0.04181 0.0171128 0 0 0 1.3411e-06 -5.41966e-06 -4.97886e-05 5.18944e-05 -1.04606e-05 3.12772e-05 0.00591111 0.00229915 -0.00394087 0.004 530.436 2.33139 
142 1 1 0.00615853 -0.0401388 0.015421 0 0 0 3.44744e-06 1.21453e-06 -5.19096e-05 3.88815e-05 8.58348e-06 2.21673e-05 0.0035449 0.000779593 0.000454497 0.004 637.746 -6.15852 
172 1 1 0.0116013 -0.0446446 0.0189547 0 0 0 2.89433e-06 4.59784e-06 -4.03981e-05 2.84701e-05 5.29315e-06 8.71419e-06 -0.00716992 -0.00149336 0.000270009 0.004 704.182 -10.2905 
109 1 1 0.0204197 -0.0412797 0.0183141 0 0 0 -1.58756e-06 1.28654e-05 -2.01845e-05 1.56251e-05 1.13048e-05 -4.71602e-06 0.000313931 -0.0044506 0.000278896 0.004 776.106 -6.28192 
150 1 1 -0.0273272 -0.0370831 0.0158762 0 0 0 -1.17114e-06 7.07714e-06 4.98719e-06 2.14134e-05 -6.41226e-06 6.80384e-06 6.79519e-05 0.000616404 0.000218447 0.004 307.24 2.80184 
38 1 1 -0.0197789 -0.0373719 0.0182822 0 0 0 9.60512e-06 1.02697e-05 -1.58715e-05 3.27471e-05 -7.23474e-06 1.93016e-05 -0.00397572 0.00563149 -0.00226402 0.004 323.66 6.02981 
199 1 1 -0.0118546 -0.0370265 0.0176497 0 0 0 1.17971e-05 2.56689e-06 -4.15081e-05 3.81103e-05 -1.83287e-05 4.33833e-05 -0.00501998 0.000196298 -3.91489e-05 0.004 355 9.0714 
93 1 1 0.0137642 -0.0377759 0.0156806 0 0 0 1.57525e-06 1.60035e-05 -5.37578e-05 3.49955e-05 1.54673e-05 6.31851e-06 0.000742883 -0.00491061 0.00144457 0.004 731.2 -9.47893 
64 1 1 0.0280177 -0.0365092 0.0179286 0 0 0 9.7857e-06 1.04315e-05 -1.95014e-05 -7.89195e-06 1.39184e-05 -1.43882e-05 -0.0020811 -0.0011434 -0.00280327 0.004 795.092 -2.15323 
22 1 1 -0.0327403 -0.032422 0.0194566 0 0 0 -2.9403e-06 1.30521e-05 9.10609e-06 1.50065e-05 -6.5838e-06 7.10896e-06 0.000889261 -0.00117178 0.00286772 0.004 302.578 1.26266 
174 1 1 -0.022432 -0.0302104 0.0162615 0 0 0 4.20552e-06 1.57362e-05 -8.39474e-06 2.64276e-05 -1.02182e-05 2.50344e-05 0.000987305 0.00533495 0.00125623 0.004 314.92 4.66616 
32 1 1 -0.00428324 -0.0343966 0.0166772 0 0 0 1.57529e-05 4.30798e-06 -4.80329e-05 4.6763e-05 -2.06182e-05 6.06845e-05 -0.00622502 0.00287476 0.00185995 0.004 474.624 7.1863 
128 1 1 0.00347445 -0.0331319 0.0179956 0 0 0 1.28871e-05 2.79912e-05 -7.58133e-05 4.56663e-05 -1.62716e-05 6.52723e-05 -0.00677639 0.00192333 2.41967e-05 0.004 590.455 -1.91662 
88 1 1 0.0113686 -0.0304834 0.0177098 0 0 0 9.94879e-06 4.34326e-05 -7.45387e-05 2.95364e-05 1.31043e-05 2.84549e-05 -0.00369213 0.00165412 -0.00109664 0.004 724.222 -9.26097 
137 1 1 0.0208046 -0.0338186 0.0156333 0 0 0 1.32948e-06 1.95602e-05 -3.16702e-05 2.97359e-05 2.96384e-05 4.28312e-06 -0.00350397 -0.00556355 0.00112981 0.004 785.82 -4.93587 
154 1 1 0.033982 -0.0311387 0.0180551 0 0 0 7.98871e-06 9.75343e-06 -1.05726e-05 4.73364e-06 9.10196e-06 -2.74752e-06 -0.00114459 -0.00132621 -0.00201982 0.004 798.212 -0.886782 
52 1 1 -0.0319911 -0.0252343 0.0161624 0 0 0 -2.15468e-06 1.69712e-05 1.44576e-05 1.54739e-05 3.04028e-06 2.1662e-05 -0.00219224 0.0014354 -0.00160132 0.004 302.882 1.29852 
80 1 1 -0.00960122 -0.0265064 0.01758 0 0 0 7.05229e-06 3.26438e-05 -7.63985e-05 4.6194e-05 -3.41991e-05 8.12926e-05 -0.00439611 0.00760042 -0.000233656 0.004 395.153 9.35666 
125 1 1 -0.00117376 -0.0267 0.0173738 0 0 0 1.87452e-05 4.29393e-05 -9.00722e-05 3.56012e-05 -1.90577e-05 9.3385e-05 -0.0165954 0.0174841 -0.000392109 0.004 518.75 4.93527 
72 1 1 0.0179272 -0.0264317 0.0156368 0 0 0 2.0906e-05 3.10319e-05 -7.29443e-05 1.67957e-05 3.544e-05 2.08906e-05 -0.00365067 0.00264701 -0.00570641 0.004 771.686 -6.91084 
34 1 1 0.0269647 -0.0287252 0.0154182 0 0 0 1.8727e-05 2.64003e-05 -2.96831e-05 1.13817e-05 3.45206e-05 -4.80812e-06 -0.00223209 -9.93045e-06 -0.00316783 0.004 793.903 -2.24633 
218 1 1 -0.0395969 -0.0234663 0.0176915 0 0 0 2.5203e-06 1.57936e-05 1.36076e-05 9.47142e-06 3.88607e-06 1.73208e-05 -0.000221645 -0.001178 0.00196756 0.004 300.551 0.336867 
70 1 1 -0.0247177 -0.0230257 0.0185782 0 0 0 3.21734e-06 2.77517e-05 -1.02937e-05 2.55505e-05 -9.16212e-06 4.31866e-05 -0.00477125 0.0038923 0.00116242 0.004 311.049 3.34975 
132 1 1 -0.0171325 -0.0242633 0.016474 0 0 0 3.19942e-06 2.55933e-05 -3.26477e-05 3.05867e-05 -2.17616e-05 5.71028e-05 -0.00252525 0.00368843 0.000843453 0.004 332.466 6.52227 
196 1 1 0.00716645 -0.023789 0.0170598 0 0 0 4.2286e-05 7.34903e-05 -0.000113929 1.05885e-05 6.17622e-06 5.63441e-05 -0.00728905 -0.00569155 -0.00673254 0.004 682.731 -7.9167 
362 1 1 0.0243873 -0.0214293 0.0170616 0 0 0 3.51553e-05 5.35067e-05 -6.22707e-05 4.27793e-06 3.17368e-05 7.61134e-06 -0.00251173 -0.0106337 -0.00523557 0.004 794.081 -2.27722 
49 1 1 0.0387627 -0.0248027 0.0179814 0 0 0 9.17834e-06 5.87653e-06 -7.36765e-06 3.75656e-06 7.35009e-06 -7.35378e-07 0.0010405 -0.000504957 -0.00047107 0.004 799.498 -0.323735 
173 1 1 -0.0431191 -0.0163147 0.0177078 0 0 0 1.97702e-06 1.28951e-05 1.44367e-05 8.76303e-06 9.64411e-06 1.19912e-05 -0.000114015 -0.00289678 0.00261502 0.004 300.386 0.242254 
50 1 1 -0.0295066 -0.0167658 0.0182809 0 0 0 8.89137e-06 4.77429e-05 1.5936e-05 2.80847e-05 7.63664e-06 3.86364e-05 0.00451582 0.00490313 -0.00376379 0.004 304.602 1.73562 
202 1 1 -0.0134621 -0.0172166 0.0161102 0 0 0 1.1571e-05 3.22423e-05 -5.4516e-05 3.52617e-05 -2.40989e-05 6.54262e-05 0.00104456 0.00300874 -0.00203679 0.004 364.126 8.32433 
86 1 1 -0.00524887 -0.0199156 0.0183752 0 0 0 2.59932e-05 5.55958e-05 -0.000105679 3.61267e-05 -3.21066e-05 9.96802e-05 0.00574752 -0.00404098 -0.00234575 0.004 466.991 6.87 
129 1 1 0.0138597 -0.0196296 0.0162858 0 0 0 4.40669e-05 5.39718e-05 -9.28277e-05 5.10351e-06 2.60774e-05 3.90055e-05 -0.00637493 0.00308992 0.000936218 0.004 747.297 -7.83625 
82 1 1 0.0291401 -0.0151359 0.0159324 0 0 0 4.29717e-05 4.11889e-05 -4.40792e-05 4.2688e-06 3.9627e-05 1.20212e-05 -0.00424456 0.00436263 -0.00115085 0.004 797.443 -1.23791 
1 1 1 0.0424682 -0.0178049 0.0178803 0 0 0 1.37251e-05 7.50277e-06 -3.09168e-06 4.77646e-06 8.4277e-06 5.45575e-06 -0.000865159 -0.000803192 -0.000137096 0.004 799.798 -0.148211 
168 1 1 -0.02248 -0.0136303 0.0164165 0 0 0 1.0876e-05 4.23512e-05 -1.94003e-05 3.6793e-05 -1.17068e-05 5.49601e-05 -0.00261784 0.00367834 0.00126783 0.004 316.365 4.40662 
121 1 1 -0.00514913 -0.0120183 0.0174564 0 0 0 2.21516e-05 6.68132e-05 -0.000100633 1.88308e-05 -2.88662e-05 7.61112e-05 -0.00388673 0.00458371 0.00582856 0.004 487.11 3.63031 
28 1 1 0.00814298 -0.0139812 0.0183173 0 0 0 3.72371e-05 0.000106429 -0.00015643 1.11476e-05 1.66892e-07 6.91336e-05 -0.00957385 -0.000534368 -0.00210666 0.004 705.655 -10.529 
42 1 1 0.0200408 -0.0148105 0.0172658 0 0 0 4.82551e-05 6.92238e-05 -9.91751e-05 2.63341e-06 2.75395e-05 3.08766e-05 -0.000898966 -0.00300134 -0.000828177 0.004 782.047 -4.63068 
60 1 1 0.0376281 -0.0116471 0.0161719 0 0 0 2.9445e-05 2.85244e-05 -2.36716e-05 -9.961e-06 2.95301e-05 1.7103e-05 -0.00392877 0.00186269 -0.00364158 0.004 799.668 -0.224574 
135 1 1 -0.0452123 -0.00865097 0.0176759 0 0 0 1.09294e-05 9.69027e-06 1.16818e-05 2.17028e-06 -4.3115e-06 -3.62816e-06 -9.6602e-05 0.00121673 -0.00243432 0.004 300.11 0.0856462 
81 1 1 -0.0376131 -0.00944822 0.0199381 0 0 0 6.64803e-06 3.05759e-05 6.75381e-05 -2.82952e-06 2.81229e-05 5.37729e-05 0.0115423 -0.0155195 0.00928238 0.004 300.401 0.25595 