ITEM: TIMESTEP
20800
ITEM: NUMBER OF ATOMS
890
ITEM: BOX BOUNDS mm mm mm
-0.05 0.05
-0.05 0.05
0 0.15
ITEM: ATOMS id type type x y z ix iy iz vx vy vz fx fy fz omegax omegay omegaz radius f_Temp[0] f_heatFlux[0] 
59 1 1 -0.000715609 -0.0460982 0.00395596 0 0 0 2.51146e-05 -2.17152e-06 -4.78502e-06 -7.10903e-06 -6.80258e-06 4.66031e-06 -0.00188474 -0.00387966 -0.00704016 0.004 382.246 71.5527 
170 1 1 -0.0173499 -0.0426414 0.00397301 0 0 0 8.05014e-06 -2.20371e-05 -1.75773e-05 3.17655e-05 -5.71893e-06 -1.00733e-05 0.00372163 0.00704605 -0.00528285 0.004 300.708 1.92874 
15 1 1 -0.00975026 -0.0449638 0.00393397 0 0 0 -4.2978e-06 -2.15778e-05 -1.4221e-05 4.70446e-05 2.01986e-05 -5.98325e-05 0.00288258 -0.00102272 0.00364537 0.004 305.91 10.5015 
116 1 1 0.00648755 -0.0428196 0.00395868 0 0 0 2.81099e-05 2.41646e-05 1.50711e-05 -1.50979e-05 -7.00529e-05 -1.21339e-05 -0.00266671 0.00241755 0.0100176 0.004 731.124 -50.6632 
158 1 1 0.0143627 -0.0437625 0.0038998 0 0 0 2.41568e-05 2.03903e-05 7.28001e-06 -2.12753e-06 -2.83179e-05 -6.76434e-06 -0.000305748 0.00197364 -0.00690446 0.004 794.297 -10.1298 
98 1 1 0.0216779 -0.0406527 0.00394262 0 0 0 3.81542e-05 4.29415e-06 4.55896e-06 4.9343e-06 -4.97975e-06 2.35607e-06 0.000335358 0.00214555 -0.00576371 0.004 799.676 -0.956783 
169 1 1 -0.0244317 -0.0390658 0.00391432 0 0 0 5.8546e-06 -5.25693e-06 9.20018e-06 5.94137e-07 -2.64607e-06 -4.60245e-06 -0.0010295 0.000845584 0.0015157 0.004 300.05 0.184282 
89 1 1 -0.0118121 -0.0369236 0.00395466 0 0 0 8.35541e-06 -4.12758e-05 -6.0218e-07 -4.63706e-06 2.5656e-05 -3.00445e-05 0.00838396 -0.00108564 0.000344808 0.004 309.251 14.7143 
152 1 1 -0.00418351 -0.0390222 0.00390531 0 0 0 3.1127e-05 -1.76328e-05 -9.79198e-06 -1.55173e-05 4.52954e-05 -2.79132e-06 0.00405011 0.00356958 0.00887015 0.004 390.635 47.124 
23 1 1 0.0153482 -0.035882 0.00391133 0 0 0 5.8612e-05 1.80846e-05 5.08171e-06 1.58176e-05 -5.7875e-05 2.95646e-06 -0.00142302 0.00751962 -0.000563852 0.004 798.638 -3.71394 
118 1 1 -0.0307535 -0.0342396 0.00392723 0 0 0 -1.8009e-06 -3.3835e-06 4.82496e-06 -9.604e-06 3.10083e-06 -2.39896e-06 0.00145993 -0.00103949 0.000352999 0.004 300.001 0.00709627 
30 1 1 -0.0188789 -0.0333716 0.00395287 0 0 0 -7.26064e-06 -2.231e-05 3.60675e-07 -2.08539e-05 -5.33897e-06 -1.01278e-05 0.00136847 -0.00358627 -0.00193179 0.004 300.585 1.52627 
215 1 1 -0.00603704 -0.0313237 0.00390665 0 0 0 3.49004e-05 -2.49369e-05 5.94704e-06 9.25921e-05 1.81065e-05 -4.30757e-05 0.00599786 0.00221821 -0.00629172 0.004 320.52 32.3532 
74 1 1 0.00184123 -0.0338192 0.00390688 0 0 0 4.85984e-05 1.32075e-05 2.6159e-06 -3.74766e-06 6.27494e-07 -2.12816e-05 0.002485 0.00392987 -0.00849549 0.004 665.357 -89.7361 
24 1 1 0.00917845 -0.030834 0.00392041 0 0 0 5.53301e-05 1.55041e-05 1.97779e-05 -1.25992e-05 -8.88966e-05 -2.1869e-05 -0.00204728 0.0063016 0.00531452 0.004 785.811 -23.6319 
198 1 1 0.0259422 -0.0339524 0.00395556 0 0 0 3.8782e-05 2.7105e-05 -5.8272e-06 1.35375e-05 4.1317e-05 -3.1188e-05 -0.0064038 0.00544268 0.00778756 0.004 799.985 -0.0636311 
161 1 1 0.0335301 -0.0316074 0.0039136 0 0 0 1.59732e-05 1.75539e-05 3.43602e-06 2.64892e-06 1.57697e-05 6.88991e-07 -0.000350867 0.000371781 -0.00870605 0.004 799.999 -0.00346561 
8 1 1 -0.0322715 -0.0264165 0.00398405 0 0 0 9.96786e-07 9.56175e-06 9.02583e-06 7.14926e-06 3.26525e-05 7.52673e-06 -0.00243359 0.00479811 -0.00275578 0.004 300.001 0.00420741 
12 1 1 -0.024416 -0.0276965 0.00386386 0 0 0 -1.55217e-05 -6.20463e-06 -6.5338e-06 1.35469e-05 2.48606e-05 -1.00396e-05 0.00335175 -0.00412994 -0.00329294 0.004 300.029 0.110151 
188 1 1 -0.0131754 -0.027776 0.00396621 0 0 0 -1.22093e-06 -1.56041e-05 -2.45549e-06 5.54983e-05 4.07219e-05 -1.50119e-05 -0.00114628 -0.0026462 0.000840757 0.004 300.915 2.45853 
77 1 1 -0.00010057 -0.0260809 0.00389433 0 0 0 3.57822e-05 3.71248e-05 1.93332e-05 -3.57626e-05 4.54932e-05 -4.42366e-06 -0.0046387 0.00778404 0.0186269 0.004 439.844 88.4228 
113 1 1 0.0165642 -0.0280203 0.00388659 0 0 0 4.53794e-05 2.75487e-05 1.37186e-05 -4.90113e-06 -1.10513e-05 4.17356e-05 -2.76693e-05 0.00396148 0.00488649 0.004 799.02 -2.69008 
183 1 1 0.0384541 -0.0253742 0.00393849 0 0 0 1.00471e-05 6.61649e-06 3.58687e-06 -6.13106e-06 8.30907e-06 1.37822e-05 0.00065076 0.000552952 0.000514432 0.004 800 -0.000172131 
162 1 1 -0.0396317 -0.0234166 0.00390909 0 0 0 -8.58513e-06 -3.11391e-06 1.01584e-05 -9.29627e-06 1.19074e-05 -2.08404e-06 0.00137247 -0.00251779 0.00556243 0.004 300 0.000137714 
53 1 1 -0.0272091 -0.0202486 0.00395271 0 0 0 -3.41821e-05 2.04606e-05 -9.35822e-06 2.19201e-05 8.08981e-05 1.50815e-05 -0.00532746 -0.00443714 0.0137316 0.004 300.003 0.0150621 
148 1 1 -0.0187601 -0.0220645 0.00393813 0 0 0 -8.67034e-06 -1.19193e-05 1.00887e-05 -2.32465e-05 1.81139e-05 -3.99291e-05 0.0060366 -0.00317314 0.00304555 0.004 300.153 0.449802 
195 1 1 -0.00727892 -0.0215503 0.00394577 0 0 0 4.12844e-06 1.80539e-06 2.50425e-05 0.000197972 0.000128809 -2.99709e-05 0.00757877 0.00110999 -0.00703294 0.004 307.989 14.0105 
179 1 1 0.00736619 -0.0231031 0.00394281 0 0 0 1.7206e-05 3.16259e-05 2.63019e-05 -0.000121296 -6.09251e-05 -1.6249e-05 -0.00439545 0.00280462 -0.00124452 0.004 790.463 -17.5033 
95 1 1 0.0148505 -0.0203101 0.00393225 0 0 0 7.41342e-06 2.49971e-05 1.00997e-05 -0.000115531 8.17473e-06 2.45829e-06 -0.00553843 -0.000192354 0.0016389 0.004 798.75 -3.35706 
76 1 1 0.0230027 -0.0233057 0.00397478 0 0 0 5.97728e-05 3.95256e-05 -1.66289e-05 -0.000117539 5.84817e-06 8.6056e-05 -0.00734657 0.0107314 -0.00458879 0.004 799.976 -0.0925412 
100 1 1 0.0325586 -0.0200895 0.00388602 0 0 0 3.58638e-05 4.78662e-05 1.96698e-05 -8.11408e-05 -1.11633e-05 1.61302e-05 -0.0078562 0.0103215 -0.00626611 0.004 800 -0.00175516 
65 1 1 -0.0430758 -0.0162785 0.00393393 0 0 0 -9.29697e-06 -1.03474e-05 8.68991e-06 1.38169e-05 2.74827e-05 -4.83615e-06 0.00111801 -0.000614015 -0.00652226 0.004 300 1.15816e-05 
102 1 1 -0.0351607 -0.0155072 0.00394469 0 0 0 -3.24233e-05 -1.77365e-05 -1.18117e-06 5.20714e-05 0.000101062 1.87901e-05 0.0136559 -0.00201131 0.00961496 0.004 300 0.000324837 
213 1 1 -0.0132598 -0.0162743 0.00397374 0 0 0 1.99604e-05 2.79437e-05 4.16261e-05 -3.75345e-05 2.27838e-05 -4.09952e-05 -0.00636181 0.0050355 -0.00159865 0.004 300.464 1.33742 
10 1 1 0.00114836 -0.0182526 0.00475005 0 0 0 2.76086e-06 8.00802e-05 7.84145e-05 -0.000146854 6.13642e-05 8.76949e-05 0.0120484 0.00583525 5.8977e-05 0.004 695.664 -78.2357 
5 1 1 0.00879774 -0.0152554 0.00390339 0 0 0 -1.29648e-05 2.23348e-05 2.94785e-05 -6.96086e-05 3.1457e-05 -1.99743e-05 0.00394874 0.00581727 0.00256446 0.004 786.303 -22.1598 
96 1 1 0.0211693 -0.0155243 0.00395659 0 0 0 -1.78808e-05 3.02326e-05 1.89206e-05 -0.000120757 2.75642e-05 -6.2247e-06 1.54481e-05 -0.0100729 0.00923285 0.004 799.944 -0.208898 
167 1 1 0.0421923 -0.0183683 0.00392114 0 0 0 -1.44926e-06 1.58777e-05 4.5054e-06 -1.58722e-05 7.73947e-07 -2.01571e-07 -0.00350374 -0.000503293 -0.000254246 0.004 800 -4.99342e-06 
124 1 1 -0.0290074 -0.0104711 0.00394633 0 0 0 -4.63766e-05 4.02335e-05 -9.25424e-06 5.95682e-05 0.000185844 0.000114202 -0.0171461 -0.00619804 -0.0106708 0.004 300.002 0.00852304 
220 1 1 -0.0217766 -0.0144553 0.00398109 0 0 0 -4.13079e-05 5.10113e-05 -1.30357e-05 2.49911e-05 0.000177883 0.000104362 -0.0102511 -0.0103276 -0.00918491 0.004 300.071 0.259243 
144 1 1 -0.00535545 -0.0138043 0.00388183 0 0 0 -1.54368e-05 6.80528e-05 6.83468e-05 -3.72594e-05 0.000183238 1.96137e-05 -0.00916108 -0.00516909 0.00712415 0.004 367.499 53.8195 
26 1 1 0.00255542 -0.0104634 0.00390581 0 0 0 -3.95061e-05 8.98076e-05 7.12802e-05 1.0094e-06 0.000116541 -1.14188e-05 -0.0138158 -0.00475651 -0.00140218 0.004 680.056 -74.508 
194 1 1 0.0287353 -0.013103 0.00393093 0 0 0 -5.17747e-07 6.10081e-05 2.69043e-05 -8.48395e-05 -1.89769e-05 -1.29732e-05 -0.00647372 0.000192654 0.0095294 0.004 799.998 -0.00880423 
37 1 1 0.0366701 -0.0122307 0.00393312 0 0 0 1.03147e-05 4.88537e-05 2.767e-05 -6.72742e-05 3.90796e-05 -3.35535e-06 -0.0113906 0.00169078 -0.013317 0.004 800 -0.00016257 
219 1 1 0.0447285 -0.0108715 0.00390891 0 0 0 -4.02125e-06 1.26696e-05 1.05568e-05 -3.82838e-05 -1.78946e-06 -1.19623e-05 0.000526557 -0.000737599 -0.000224248 0.004 800 -1.57813e-07 
636 1 1 -0.0451997 -0.00864089 0.00392111 0 0 0 -1.97129e-06 -5.82353e-07 5.64431e-06 1.93302e-05 3.05177e-05 -7.14979e-06 -0.000832361 -0.00153451 0.00437508 0.004 300 4.35092e-07 
39 1 1 -0.016147 -0.00885171 0.00388953 0 0 0 -1.93425e-05 6.55794e-05 1.37097e-05 8.27823e-05 0.000183828 5.90694e-05 0.000489361 -0.0097555 0.00600092 0.004 301.69 4.24096 
171 1 1 -0.00396024 -0.00597875 0.00392049 0 0 0 -5.58913e-05 9.66701e-05 4.04502e-05 8.48203e-05 0.000151602 -2.27592e-05 -0.0125498 -0.00389345 0.00695472 0.004 372.695 56.6417 
200 1 1 0.0146297 -0.0098653 0.00396393 0 0 0 -5.40169e-05 3.48544e-05 3.52302e-05 -8.00685e-05 1.43788e-05 1.78424e-05 0.00156008 0.00477454 0.00839995 0.004 798.902 -2.92819 
21 1 1 0.0222519 -0.00762165 0.00394351 0 0 0 -7.91258e-05 4.07393e-05 2.48245e-05 -7.25758e-05 2.61795e-06 -2.24114e-05 -0.00901113 -0.0165275 -0.00189079 0.004 799.957 -0.160336 
17 1 1 0.0298456 -0.0052071 0.00394891 0 0 0 -8.12603e-05 5.80538e-05 4.08758e-05 -6.50898e-05 -3.3023e-05 -1.4048e-05 -0.00733155 -0.015155 0.0107913 0.004 799.999 -0.0058271 
477 1 1 -0.0445897 -0.000710273 0.00396452 0 0 0 -2.21932e-05 4.76354e-06 -7.96497e-06 9.1212e-05 5.53869e-05 3.11047e-05 -0.00192362 -0.00299961 0.00248181 0.004 300 3.75065e-06 
140 1 1 -0.0352689 -0.00371695 0.00387157 0 0 0 -5.03107e-05 -2.78967e-06 -5.24921e-05 0.000204825 0.000168021 0.000140122 0.000630877 -0.0101766 0.00361539 0.004 300 0.00145779 
119 1 1 -0.02739 -0.00269771 0.00396329 0 0 0 -2.05021e-05 5.17552e-05 -1.90047e-05 0.000150073 0.000264444 3.90022e-05 0.010733 -0.00493968 0.00485507 0.004 300.008 0.0394249 
207 1 1 -0.0194912 -0.00168771 0.00389447 0 0 0 -1.91449e-05 0.000130794 6.9839e-08 0.000107535 0.000254759 7.10185e-05 -0.0137273 -0.000911944 0.00531094 0.004 300.217 0.776268 
69 1 1 -0.0111575 -0.00264596 0.00392997 0 0 0 -1.9872e-05 0.00012294 2.88269e-05 0.000105108 0.000161773 -8.26292e-07 -0.0182523 0.00183952 -0.0116147 0.004 306.244 11.5087 
221 1 1 0.00874785 -0.00449014 0.00393215 0 0 0 -0.000118686 7.60884e-05 3.73525e-05 4.83946e-06 0.000134076 -7.3138e-06 -0.0143984 -0.0197228 -0.0167241 0.004 790.034 -16.3832 
457 1 1 0.0163504 -0.00208062 0.00395944 0 0 0 -6.69408e-05 2.83598e-07 7.1582e-06 3.86221e-05 -5.61668e-05 -2.64026e-05 -0.0112277 -0.00340226 -0.00840381 0.004 799.611 -1.10166 
155 1 1 0.0378911 -0.00224677 0.00393708 0 0 0 -4.48857e-05 2.89632e-05 5.2222e-05 5.58758e-06 -1.74378e-05 -2.23772e-05 -0.000333282 -0.00950787 0.00959235 0.004 800 -0.00015992 
665 1 1 0.0459182 -0.0030762 0.00394264 0 0 0 -4.41962e-05 2.38046e-05 9.67494e-06 3.05023e-05 -5.74686e-05 -1.5472e-05 -0.00563096 -0.00929548 0.00810669 0.004 800 -4.11735e-07 
120 1 1 0.00918465 -0.037109 0.00876936 0 0 0 9.30715e-05 2.91162e-05 3.07071e-05 -3.81405e-05 -8.83043e-05 -1.43795e-05 0.00524307 0.0106655 -0.0107157 0.004 788.11 -20.6913 
9 1 1 -0.024715 -0.033359 0.00937625 0 0 0 -1.04589e-05 -1.49624e-05 -7.59932e-06 -5.50256e-05 2.49648e-05 -1.34531e-05 -0.0038623 0.00428225 0.00474885 0.004 300.02 0.0789263 
101 1 1 -0.0188642 -0.027719 0.00955168 0 0 0 -3.27885e-05 -2.93433e-05 -1.04877e-05 6.36066e-05 2.71915e-05 -3.40888e-05 0.00223872 -0.00263142 0.00370128 0.004 300.084 0.315885 
48 1 1 0.0221997 -0.0293137 0.00920031 0 0 0 8.32397e-05 1.75678e-05 1.4227e-05 9.20143e-05 -5.93762e-05 3.77816e-05 0.0101129 0.00388809 0.00200124 0.004 799.905 -0.354429 
75 1 1 0.02936 -0.0261745 0.00787423 0 0 0 5.74248e-05 4.30499e-05 1.76153e-05 2.74006e-07 -1.22162e-05 5.02126e-05 0.00406455 -0.00287859 0.000488078 0.004 799.996 -0.0171434 
46 1 1 -0.0327978 -0.0205743 0.00958408 0 0 0 -6.07131e-05 -2.02364e-05 -2.45399e-05 2.76233e-05 5.87229e-05 -2.32348e-06 -0.0123362 -0.0101202 0.0126457 0.004 300.001 0.00282647 
33 1 1 -0.0130359 -0.0220255 0.00949604 0 0 0 -1.5118e-05 -7.47888e-05 2.82814e-05 9.81996e-05 0.000236862 -0.000191964 0.0244648 -0.00618792 -0.00661383 0.004 303.833 6.39549 
11 1 1 0.0268901 -0.0187447 0.00924481 0 0 0 2.19065e-05 5.47089e-05 6.53967e-06 -0.000135396 5.07943e-07 2.37984e-05 0.00688825 -0.0219492 0.01021 0.004 799.994 -0.0278948 
71 1 1 -0.0372789 -0.00953955 0.00877232 0 0 0 -3.98423e-05 -1.45265e-05 -8.6365e-07 0.000153908 0.000127804 8.78787e-05 -0.0224193 0.0076522 0.011258 0.004 300 9.02367e-05 
62 1 1 -0.0228076 -0.00771255 0.00813923 0 0 0 -4.4822e-05 7.14438e-05 -7.10422e-05 0.000204771 0.000383357 0.000158599 -0.0138357 -0.0020648 -0.00188262 0.004 300.064 0.237146 
19 1 1 -0.00970743 -0.00905707 0.0084907 0 0 0 -4.96299e-05 0.000128159 5.01969e-05 5.61556e-05 0.000284455 3.70709e-06 -0.0113679 -0.00430929 -0.00311452 0.004 324.921 36.9064 
187 1 1 0.00796698 -0.00988215 0.00975763 0 0 0 0.000154086 1.06793e-05 2.86073e-05 -0.00011696 7.90833e-05 4.87424e-05 0.027378 0.085043 0.00895767 0.004 794.936 -9.77671 
157 1 1 0.0395816 -0.00751943 0.00963126 0 0 0 -3.80707e-05 3.79298e-05 5.36135e-05 -5.91195e-05 5.10928e-05 3.64966e-05 0.00709954 -0.0112854 0.0134278 0.004 800 -8.96639e-06 
18 1 1 0.00229071 -0.00404985 0.00852658 0 0 0 -0.000151236 0.000188293 7.61737e-05 0.000121693 0.000235735 2.53214e-05 0.00616049 0.0126747 0.0198196 0.004 674.812 -78.9901 
185 1 1 -0.00531148 -0.045735 0.0104437 0 0 0 -1.4335e-05 -1.77014e-05 -1.47669e-05 3.72436e-05 6.50988e-05 -2.87081e-05 0.00636501 -0.00399981 0.0105047 0.004 362.708 46.1511 
83 1 1 0.00256733 -0.0459473 0.0112658 0 0 0 7.94448e-06 2.10219e-05 -9.25787e-06 -3.35862e-05 3.88326e-06 5.3201e-05 -0.00626969 0.00244294 -0.00473095 0.004 726.217 -63.6028 
58 1 1 -0.0218569 -0.040582 0.0112771 0 0 0 -4.87828e-06 -1.07956e-06 6.15775e-05 -4.7526e-05 6.8027e-05 2.10221e-05 0.00743937 -0.0143076 0.00127505 0.004 300.03 0.122809 
105 1 1 -0.0135862 -0.0439662 0.0108786 0 0 0 -8.98421e-05 1.92109e-05 -1.65232e-05 0.000172085 -4.45056e-06 -6.13225e-05 -0.0207666 -0.0404418 0.00690274 0.004 300.616 1.70532 
223 1 1 0.0103956 -0.0448674 0.0106705 0 0 0 2.3507e-05 1.21762e-05 1.02659e-06 -2.38479e-05 2.93556e-07 1.54109e-05 0.0042301 -0.00191328 -0.00277829 0.004 789.105 -19.498 
217 1 1 0.0179432 -0.0424253 0.0108281 0 0 0 4.10492e-05 -6.45728e-06 1.20933e-05 2.86129e-05 -8.38107e-06 -1.25978e-05 0.0022568 0.00264295 -0.00683126 0.004 798.899 -3.04272 
6 1 1 -0.0162622 -0.0350306 0.011312 0 0 0 1.01078e-06 1.26589e-05 4.44026e-05 3.74441e-05 3.12573e-05 -0.000109556 -0.0223109 0.00897505 7.19046e-05 0.004 300.498 1.4639 
151 1 1 -0.00801375 -0.0382604 0.0108115 0 0 0 -5.74507e-06 -2.03741e-05 -6.03495e-08 8.02932e-05 3.22192e-05 -5.63368e-05 -0.0116537 -0.000503556 -0.0100131 0.004 313.889 22.085 
2 1 1 0.000443744 -0.0383079 0.010271 0 0 0 7.403e-05 2.26361e-05 -1.40881e-05 -6.27821e-05 6.36242e-05 4.17353e-05 -0.00241335 -0.0009334 0.0109454 0.004 642.018 -94.5067 
117 1 1 0.0249195 -0.0387267 0.0109177 0 0 0 4.08182e-05 -1.56302e-05 2.44942e-05 4.71815e-05 -2.13648e-05 1.94757e-05 0.00525416 -0.0042615 0.00277438 0.004 799.933 -0.253266 
13 1 1 -0.0323459 -0.0327545 0.0115373 0 0 0 -7.66055e-06 -1.94536e-05 2.05038e-06 -4.80282e-05 2.24966e-06 -2.29265e-05 0.00243594 -0.000272312 6.7358e-05 0.004 300.001 0.00400107 
193 1 1 -0.00982646 -0.0305006 0.0107691 0 0 0 6.92845e-05 -4.02741e-05 -6.68998e-07 4.57886e-06 0.000102799 -0.000175718 0.0133393 0.000895377 -0.0190476 0.004 306.915 13.1553 
47 1 1 -0.00133831 -0.0305435 0.0103849 0 0 0 0.000102178 2.30268e-05 2.22055e-05 -7.28897e-05 5.10502e-05 -7.39512e-05 0.00584907 0.00161291 -0.0109709 0.004 426.014 80.8509 
153 1 1 0.00656401 -0.0300232 0.0113663 0 0 0 0.000116674 2.35854e-05 3.87379e-05 -1.4562e-05 1.20749e-05 -6.24992e-05 -0.00302729 0.00297927 0.0100897 0.004 756.333 -41.5335 
41 1 1 0.0148074 -0.0317914 0.0106541 0 0 0 0.000124173 8.26976e-06 2.91054e-05 5.99001e-05 -4.44096e-05 -2.51534e-05 0.00343141 0.0101138 -9.39e-06 0.004 798.945 -2.9943 
163 1 1 0.0311565 -0.0339183 0.0111114 0 0 0 2.99365e-05 3.75466e-06 3.52246e-05 7.33333e-05 -1.3873e-05 3.67531e-05 0.00420288 0.0112722 -0.00175692 0.004 799.997 -0.014814 
214 1 1 -0.037502 -0.0268253 0.0107153 0 0 0 -1.4741e-05 -1.76011e-05 8.32495e-06 -1.4444e-05 1.23084e-05 -2.54758e-05 0.00141689 -0.00174453 -0.000784378 0.004 300 0.000458703 
210 1 1 0.0364693 -0.0280971 0.0111135 0 0 0 1.76312e-05 6.34201e-06 5.55208e-06 3.03711e-05 -3.30192e-06 4.2894e-05 -0.000471015 0.00270881 0.00153688 0.004 800 -0.000691623 
108 1 1 -0.0260969 -0.0246378 0.010927 0 0 0 -4.64677e-05 -3.08651e-05 6.95303e-06 5.01845e-05 1.92034e-05 -3.20117e-05 0.00771611 0.000815336 -0.00523705 0.004 300.011 0.0455646 
40 1 1 -0.00551209 -0.0238699 0.0113291 0 0 0 3.86485e-05 -7.52657e-07 2.7743e-05 2.11153e-05 0.000166245 -9.66799e-05 -0.00306906 -0.00236344 0.0264782 0.004 359.868 40.1834 
55 1 1 0.00236153 -0.0232852 0.0108252 0 0 0 5.82172e-05 4.92526e-05 7.34411e-05 -7.81715e-05 5.3637e-05 -1.87929e-05 0.0147603 -0.00320676 -0.00599771 0.004 676.542 -68.8598 
91 1 1 0.0120915 -0.0243836 0.0101858 0 0 0 8.57216e-05 3.3734e-05 4.05972e-05 -8.04237e-05 -4.19981e-05 -5.52115e-05 0.00225141 0.0131024 0.00480865 0.004 797.022 -6.70705 
112 1 1 0.0192794 -0.0205362 0.0105075 0 0 0 7.00787e-05 4.10034e-05 1.37784e-06 -0.000174465 4.04184e-05 -3.69716e-06 -0.00248493 0.0262937 -0.00947053 0.004 799.85 -0.546031 
178 1 1 0.0318658 -0.0225253 0.0144789 0 0 0 3.34129e-05 2.40307e-05 2.65926e-05 -2.4262e-05 5.52404e-07 2.90101e-05 -0.000674784 0.0084434 0.0101524 0.004 800 -0.00167793 
131 1 1 0.0407765 -0.0214682 0.0110513 0 0 0 2.35726e-06 2.56935e-05 1.30499e-05 -3.74228e-05 1.31972e-05 1.37082e-05 0.00637978 0.00461707 -0.0043807 0.004 800 -3.00871e-05 
160 1 1 -0.0414733 -0.0199366 0.0108145 0 0 0 -2.20522e-05 -1.27901e-05 1.49505e-05 2.35798e-05 2.00343e-05 -8.08843e-06 0.000217769 -2.29269e-05 0.0016597 0.004 300 1.82125e-05 
43 1 1 -0.0361118 -0.0150942 0.0142642 0 0 0 -5.23581e-05 -6.23613e-05 -1.03018e-06 2.21891e-05 7.39064e-05 -2.26231e-05 0.0347807 0.00507208 -0.0337115 0.004 300 0.000817685 
4 1 1 -0.0270364 -0.0151161 0.0100739 0 0 0 -9.68396e-05 -4.97109e-06 -1.78523e-05 4.61511e-05 0.000115572 4.50741e-05 0.0194479 0.00841102 -0.00601906 0.004 300.007 0.0302408 
104 1 1 -0.0203038 -0.0192306 0.0111972 0 0 0 -5.13526e-05 -3.31145e-05 -9.74586e-06 7.66905e-05 0.000121094 -6.4243e-05 -0.00897308 -0.00587113 0.00398771 0.004 300.187 0.554102 
20 1 1 -0.00745593 -0.0162223 0.0110955 0 0 0 -5.01974e-05 6.28042e-05 5.35415e-05 9.14826e-05 0.000260181 1.2397e-05 0.011596 -0.00387774 -0.0022753 0.004 329.689 43.5751 
45 1 1 0.000824546 -0.0164519 0.0146053 0 0 0 1.38823e-05 9.85646e-05 0.000110218 -0.00013744 0.000161862 -3.24269e-05 -0.00445693 -0.010134 0.010791 0.004 670.247 -85.7993 
159 1 1 0.0079513 -0.0177076 0.0113476 0 0 0 8.55132e-05 4.39618e-05 7.29915e-05 -0.000181172 1.56029e-05 -9.10888e-05 -0.0194564 0.0129983 -0.0103861 0.004 781.042 -28.1071 
136 1 1 0.0347931 -0.016337 0.0104657 0 0 0 -2.00464e-05 7.09761e-05 4.29668e-05 -9.5696e-05 6.8954e-06 -2.12578e-06 0.00826342 -0.0153503 0.00827178 0.004 800 -0.000237363 
177 1 1 -0.0443294 -0.0125254 0.0108183 0 0 0 -1.49906e-05 -8.80836e-06 2.27798e-05 3.13312e-05 5.58922e-05 -2.74194e-05 0.000901933 -0.00587164 -0.00253593 0.004 300 3.94393e-06 
139 1 1 -0.0168225 -0.0121101 0.0110434 0 0 0 -7.2246e-05 2.8353e-05 -2.42757e-05 0.000129877 0.000224721 2.74701e-05 0.00143706 -0.00399472 0.00101324 0.004 300.852 2.34435 
211 1 1 -0.00209604 -0.0104155 0.0103077 0 0 0 -5.44275e-05 0.000118413 8.0514e-05 3.39145e-05 0.0002614 9.32955e-07 0.00422925 0.00132536 0.00633448 0.004 464.707 73.0205 
54 1 1 0.0149154 -0.0138959 0.0108311 0 0 0 3.39106e-05 4.19582e-05 4.52635e-05 -0.000172951 -1.69571e-05 3.47543e-07 -0.000646908 -0.00727442 0.028818 0.004 799.036 -2.54024 
84 1 1 0.0232719 -0.0118009 0.0106605 0 0 0 -7.74059e-05 4.61585e-05 6.25224e-05 -0.000133148 -4.89062e-05 -2.26489e-05 0.0047087 0.018483 0.0104493 0.004 799.99 -0.0462155 
180 1 1 0.0438204 -0.0140996 0.0110466 0 0 0 4.42885e-07 1.65425e-05 2.33124e-05 -5.69877e-05 3.81634e-05 9.2327e-06 0.00196078 0.00423056 -0.00216064 0.004 800 -9.09914e-07 
103 1 1 0.017444 -0.00636582 0.0105709 0 0 0 -0.000148224 5.65513e-05 6.49654e-05 -6.3902e-05 -7.03569e-05 1.47716e-05 -0.00653443 -0.0160674 0.00649637 0.004 799.852 -0.542019 
156 1 1 0.0308891 -0.009461 0.0106302 0 0 0 -0.00011425 7.51273e-05 6.26355e-05 -0.000111548 -4.45323e-05 1.86332e-06 0.0103521 -0.0142352 0.0122187 0.004 800 -0.00259776 
197 1 1 -0.0457821 -0.00470775 0.0107639 0 0 0 -2.56758e-05 -2.00866e-06 -6.23014e-06 6.47929e-05 4.08074e-05 -3.28661e-06 -0.00127942 0.000481613 0.000713208 0.004 300 8.35893e-07 
87 1 1 -0.0386047 -0.00380083 0.0141436 0 0 0 -0.000105445 -4.5713e-05 -7.2244e-05 0.000197455 0.00016131 8.33415e-05 0.00796072 -0.00793038 0.000801796 0.004 300 3.73915e-05 
130 1 1 -0.0313609 -0.00387153 0.0107764 0 0 0 -9.08511e-05 -8.46461e-05 -0.000126488 0.000343539 0.000431622 0.00021919 0.0383466 0.00467793 -0.0212046 0.004 300 0.00238595 
604 1 1 -0.02246 -0.000300753 0.0110775 0 0 0 -8.22206e-05 9.87174e-05 -8.90812e-05 0.000388459 0.000509038 0.000310965 0.0225565 -0.0245573 -0.0059215 0.004 300.155 0.553028 
146 1 1 -0.0155088 -0.00400803 0.0103906 0 0 0 -8.85036e-05 0.000140177 -1.46911e-05 0.000241023 0.00038169 0.000112464 0.0286868 -0.029348 0.0143781 0.004 302.624 6.5187 
57 1 1 -0.00517576 -0.00310701 0.0111953 0 0 0 -0.000120206 0.000175278 9.96871e-05 0.000254793 0.000319919 8.51133e-06 0.00608707 -0.00242126 0.00522968 0.004 380.813 56.48 
493 1 1 0.0116954 -0.000875247 0.0103669 0 0 0 -0.000226558 1.37736e-05 0.000124278 4.2985e-05 -3.98776e-05 3.41103e-05 0.02478 0.0264745 0.0276562 0.004 798.262 -4.60449 
31 1 1 0.0250482 -0.00405413 0.0104603 0 0 0 -0.000176367 5.84031e-05 7.7419e-05 -7.97048e-05 -6.91095e-05 -4.89003e-06 0.00163625 0.00192359 0.00689966 0.004 799.991 -0.04417 
588 1 1 0.0325996 -0.001745 0.0105434 0 0 0 -0.000163975 6.00972e-05 9.01617e-05 -3.05823e-05 -0.00013192 -5.25642e-05 -0.00010939 -0.00496548 -0.00429612 0.004 800 -0.00284767 
63 1 1 0.0459239 -0.0032787 0.0119254 0 0 0 -5.1163e-05 4.34497e-05 5.27652e-05 5.15678e-06 1.35613e-05 -2.65235e-05 0.0137986 0.0130477 -0.00642299 0.004 800 -2.92562e-06 
107 1 1 -0.00850611 -0.0452732 0.0176766 0 0 0 -4.28185e-06 -2.82848e-05 -5.08854e-05 2.11409e-06 2.10633e-05 -5.33979e-05 -0.0084914 0.0041401 -0.0129244 0.004 319.698 31.4375 
222 1 1 -0.00141988 -0.0418097 0.0171128 0 0 0 8.15526e-05 -3.33139e-05 -5.68086e-05 -7.42452e-05 0.00018051 0.000130764 0.0142569 -0.00748338 0.0143405 0.004 447.507 81.1988 
142 1 1 0.00615847 -0.040139 0.015421 0 0 0 9.20894e-05 3.57929e-05 3.46037e-05 -6.13165e-05 6.89414e-05 1.30421e-05 0.00522302 -0.0020203 -0.0115667 0.004 735.314 -52.6825 
172 1 1 0.0116011 -0.0446446 0.0189545 0 0 0 6.60704e-05 9.84709e-06 3.66222e-05 6.33032e-05 5.43966e-05 -1.51666e-05 0.00184087 0.0112295 -0.0122121 0.004 792.437 -14.6927 
109 1 1 0.0204197 -0.0412796 0.0183141 0 0 0 7.14758e-05 -1.02398e-05 1.34911e-05 -4.19391e-05 -1.08015e-05 1.97688e-05 -0.00221848 0.00668952 -0.0160902 0.004 799.802 -0.626138 
150 1 1 -0.0273277 -0.0370829 0.0158762 0 0 0 -2.2051e-05 -1.87097e-05 2.07997e-05 -6.82851e-05 4.52257e-05 1.25531e-05 -0.00102257 -0.0113545 -0.000476905 0.004 300.006 0.02922 
38 1 1 -0.0197798 -0.0373715 0.0182832 0 0 0 -2.08173e-05 -1.3678e-05 4.20259e-05 -1.47518e-06 1.19179e-05 -0.000174898 -0.0483473 0.0206617 -0.00880403 0.004 300.138 0.506089 
199 1 1 -0.0118551 -0.0370263 0.0176503 0 0 0 -4.21491e-05 -6.69997e-05 7.82046e-06 4.10001e-05 -2.67267e-05 -0.000169198 0.033864 -0.0151838 -0.00711914 0.004 301.553 4.11491 
93 1 1 0.0137641 -0.0377759 0.0156807 0 0 0 0.000113999 6.38021e-07 5.2683e-05 1.20585e-05 1.88734e-05 -6.56732e-05 0.00183014 0.00404202 -0.00607518 0.004 795.713 -8.44091 
64 1 1 0.0280174 -0.0365092 0.0179286 0 0 0 6.82096e-05 1.5825e-05 5.65931e-05 2.26976e-05 -4.3608e-05 -6.72901e-05 -0.00244608 0.00699256 -0.0160647 0.004 799.997 -0.0127154 
22 1 1 -0.032741 -0.0324226 0.0194573 0 0 0 -9.8489e-06 -4.56357e-05 -2.8503e-06 -3.15317e-05 1.19291e-05 -2.03233e-05 0.0039147 0.00380415 -0.00402902 0.004 300.001 0.00338233 
174 1 1 -0.0224333 -0.0302101 0.0162618 0 0 0 -1.95417e-05 -5.29142e-05 -2.33025e-05 4.01866e-05 6.32999e-05 -8.44314e-05 0.0156942 -0.00280229 0.00436549 0.004 300.037 0.149105 
32 1 1 -0.00428435 -0.0343964 0.0166778 0 0 0 9.62933e-05 -3.07796e-05 2.30925e-05 1.13938e-05 9.29877e-05 -5.66258e-05 0.0147707 0.00393652 -0.0127807 0.004 353.816 51.3911 
128 1 1 0.00347385 -0.0331325 0.0179961 0 0 0 0.000148753 6.67217e-05 6.30046e-05 -9.33922e-05 6.84522e-05 -0.000191517 -0.0176039 0.00200288 0.0158254 0.004 675.364 -80.6861 
88 1 1 0.0113682 -0.0304834 0.0177101 0 0 0 0.000198028 1.27463e-05 5.98584e-05 -7.18565e-06 5.30473e-06 -9.92355e-05 -0.00753077 0.000735087 -0.0151194 0.004 794.702 -10.3836 
137 1 1 0.0208043 -0.0338186 0.0156334 0 0 0 0.000161026 -1.36506e-05 3.00741e-05 6.46371e-05 -3.67872e-07 -2.67082e-05 -0.00162113 0.0232925 -0.0200236 0.004 799.98 -0.0883984 
154 1 1 0.033982 -0.0311386 0.0180551 0 0 0 4.56264e-05 -1.77448e-07 2.92009e-05 4.68759e-05 -1.9377e-05 5.75683e-05 0.00233332 0.00981191 -0.00802417 0.004 800 -0.0016582 
52 1 1 -0.0319914 -0.0252356 0.0161637 0 0 0 -3.00944e-05 -5.21003e-05 1.80626e-05 1.34059e-05 -2.11524e-05 -5.3419e-05 0.00647075 0.00221523 -0.000969205 0.004 300.001 0.00582097 
80 1 1 -0.00960243 -0.0265066 0.0175812 0 0 0 5.1865e-05 -4.97037e-05 1.47397e-05 -6.23181e-05 0.000140008 -0.000164777 -0.0103678 -0.00871306 0.0190365 0.004 309.762 16.7631 
125 1 1 -0.00117421 -0.0267004 0.0173745 0 0 0 6.60404e-05 2.75607e-07 3.33497e-05 -0.000235376 6.97506e-05 -0.000156911 0.0134658 -0.00805741 0.00273288 0.004 392.541 72.9386 
72 1 1 0.0179269 -0.0264317 0.0156372 0 0 0 0.000186622 1.66824e-05 5.52384e-05 -4.22518e-07 4.89507e-05 -0.000117737 0.0038143 0.00889227 0.0126744 0.004 799.755 -0.801006 
34 1 1 0.0269646 -0.0287251 0.0154181 0 0 0 6.31788e-05 2.08035e-05 5.92606e-05 7.9484e-05 -0.000101664 3.73131e-05 -0.00238673 -0.00857452 0.00358595 0.004 799.994 -0.0294196 
218 1 1 -0.0395978 -0.0234624 0.0176931 0 0 0 -2.67991e-05 -2.55671e-05 1.65401e-05 2.34011e-05 -1.10146e-06 -3.18315e-06 0.00158012 -0.00451519 -0.00245405 0.004 300 0.000162673 
70 1 1 -0.0247191 -0.0230244 0.0185757 0 0 0 -3.83857e-05 -9.19022e-05 2.50589e-05 5.8363e-05 8.75854e-05 -0.000127855 0.00219559 0.00336914 0.00161644 0.004 300.036 0.141772 
132 1 1 -0.0171337 -0.0242625 0.0164743 0 0 0 -2.26208e-05 -6.71058e-05 -9.89825e-06 5.24405e-05 8.00762e-05 -6.69632e-05 0.00650377 0.00757371 0.00112679 0.004 300.583 1.64354 
196 1 1 0.007166 -0.0237891 0.0170609 0 0 0 0.000163968 -4.03039e-05 7.26177e-05 -9.60411e-05 3.99459e-05 -0.000146149 0.014812 0.0175093 0.0225849 0.004 780.016 -30.7461 
362 1 1 0.0243875 -0.0214292 0.0170621 0 0 0 5.75886e-05 3.20351e-05 0.000128603 -9.04016e-05 -0.000124282 2.40787e-05 0.00191707 0.031956 0.00247861 0.004 799.994 -0.0271598 
49 1 1 0.0387627 -0.0248027 0.0179815 0 0 0 4.01115e-05 -1.45405e-05 2.66689e-06 -3.57145e-05 1.58511e-05 4.8065e-05 0.0036032 0.00693893 0.00512522 0.004 800 -7.01562e-05 
173 1 1 -0.0431206 -0.0163105 0.0177152 0 0 0 -3.28421e-05 -1.78588e-05 1.20824e-05 4.3057e-05 2.82483e-05 -3.79563e-06 0.00524219 0.002617 -0.00211653 0.004 300 5.97938e-05 
50 1 1 -0.0295087 -0.016765 0.0182823 0 0 0 -8.04776e-05 -0.000157543 -4.19989e-05 8.23608e-05 0.000148432 -6.58583e-05 -0.0322038 0.00256027 0.0146686 0.004 300.004 0.01877 
202 1 1 -0.013463 -0.017216 0.0161115 0 0 0 -7.52825e-05 -1.66313e-05 1.46245e-06 0.000116846 0.000125073 -1.38541e-07 0.0050338 -0.00650821 0.0107472 0.004 302.741 6.92562 
86 1 1 -0.00524933 -0.0199162 0.0183765 0 0 0 -3.00595e-05 3.4544e-05 4.07447e-05 -0.000204279 0.000186696 -0.000122579 0.00610693 -0.0195019 0.00839842 0.004 361.189 50.543 
129 1 1 0.0138595 -0.0196298 0.0162865 0 0 0 0.000113194 1.83782e-05 8.91588e-05 -0.000174091 -1.87632e-05 -8.58669e-05 0.0105139 -0.00742505 0.000486663 0.004 797.829 -5.41047 
82 1 1 0.0291402 -0.0151359 0.0159328 0 0 0 -3.52865e-05 6.01374e-05 5.5435e-05 -0.000130083 -5.62321e-06 -7.54485e-06 -0.00331755 0.014158 0.00619797 0.004 800 -0.00244822 
1 1 1 0.0424682 -0.0178049 0.0178803 0 0 0 4.34764e-06 -3.06844e-06 1.48488e-05 -6.50945e-05 4.31804e-05 1.62796e-05 0.00231043 -0.00312073 0.00498268 0.004 800 -9.94417e-06 
168 1 1 -0.0224818 -0.0136305 0.0164167 0 0 0 -0.000126296 -5.66095e-05 -6.26233e-05 0.000130296 0.000246123 -4.58455e-05 0.000570727 -0.00760617 0.0193638 0.004 300.073 0.278493 
121 1 1 -0.00514972 -0.0120192 0.0174573 0 0 0 -8.18959e-05 0.000109609 5.16897e-05 -5.40055e-06 0.000215302 -1.49161e-05 -0.00745232 -0.006986 -0.00249106 0.004 420.741 64.8355 
28 1 1 0.0081428 -0.0139816 0.0183189 0 0 0 2.60807e-05 2.8881e-05 0.00012795 -0.000185132 -5.93987e-05 -0.00018802 0.0409348 -0.0183626 0.0205603 0.004 792.879 -13.6396 
42 1 1 0.0200408 -0.0148105 0.0172665 0 0 0 4.27768e-05 2.64778e-05 0.000157833 -0.000166987 -0.000116846 -5.35047e-05 -0.00485139 0.000703163 0.00889682 0.004 799.87 -0.460884 
60 1 1 0.037628 -0.011647 0.0161722 0 0 0 -6.91291e-05 4.87073e-05 8.13832e-05 -0.000160538 5.71117e-05 9.30949e-06 -0.0049499 0.00442407 -0.00806181 0.004 800 -2.99828e-05 
135 1 1 -0.0452103 -0.00864336 0.017686 0 0 0 -6.18066e-05 -3.86014e-06 2.01913e-05 5.1779e-05 2.90755e-05 -2.49545e-05 -0.00375647 -0.0132755 0.000407058 0.004 300 2.38646e-06 
81 1 1 -0.0376107 -0.00944804 0.0199515 0 0 0 -8.5956e-05 -0.000137557 -0.000182489 6.74275e-05 0.000155902 5.71307e-05 -0.0448068 0.0800705 -0.0398486 0.004 300 5.63912e-05 
190 1 1 -0.0303523 -0.00906423 0.0166816 0 0 0 -0.000193437 -0.000202635 -0.000282938 0.000286783 0.000344335 0.000166968 -0.0110644 -0.0417796 0.0248375 0.004 300 0.00224138 