ITEM: TIMESTEP
13600
ITEM: NUMBER OF ATOMS
890
ITEM: BOX BOUNDS mm mm mm
-0.05 0.05
-0.05 0.05
0 0.15
ITEM: ATOMS id type type x y z ix iy iz vx vy vz fx fy fz omegax omegay omegaz radius f_Temp[0] f_heatFlux[0] 
59 1 1 -0.000714343 -0.0460989 0.0039559 0 0 0 -0.000114631 3.01934e-05 -4.00451e-05 -9.29929e-06 0.000120792 0.000110521 -0.00548015 -0.0181899 0.0335129 0.004 300 0 
170 1 1 -0.0173491 -0.0426415 0.0039734 0 0 0 5.85254e-05 6.24292e-05 6.04914e-05 -3.71365e-05 0.000111454 0.000124236 0.0183321 0.00834476 -0.0136868 0.004 300 0 
15 1 1 -0.00974909 -0.0449636 0.00393406 0 0 0 -1.93477e-05 2.16406e-05 -4.10681e-06 8.98593e-07 0.000147748 0.000126546 -0.00503259 -0.00810106 0.00491752 0.004 300 0 
116 1 1 0.00648883 -0.0428224 0.00395668 0 0 0 -0.000104111 6.99999e-05 -7.85334e-06 -3.21711e-05 4.65301e-05 1.26079e-05 -0.0181042 -0.00882455 -0.02305 0.004 300 0 
158 1 1 0.0143648 -0.0437623 0.00389922 0 0 0 -8.90714e-05 1.04439e-05 4.13578e-05 -8.83532e-05 7.45407e-05 6.23448e-05 0.00932086 -0.014867 0.00672761 0.004 300 0 
98 1 1 0.0216809 -0.0406517 0.00394042 0 0 0 -2.89205e-05 -1.53445e-05 7.95057e-06 -7.30398e-05 0.000133474 9.37146e-05 0.0120211 0.0328926 -0.00574799 0.004 300 0 
169 1 1 -0.0244312 -0.039066 0.00391439 0 0 0 3.1262e-05 0.000108667 9.53087e-05 5.60414e-05 3.56753e-05 3.43598e-05 0.000564259 -0.00786915 1.29712e-06 0.004 300 0 
89 1 1 -0.0118082 -0.0369245 0.0039558 0 0 0 0.000113594 0.000322589 4.28609e-05 -2.98681e-05 0.000139587 -3.77249e-05 -0.0618761 0.0196444 0.0531121 0.004 300 0 
152 1 1 -0.00417908 -0.0390213 0.0039068 0 0 0 6.49014e-05 0.000172205 -2.81671e-05 -5.21069e-05 0.000148594 0.000128706 -0.0146571 0.0315245 -0.0958271 0.004 300 0 
23 1 1 0.0153503 -0.0358843 0.00390955 0 0 0 -0.000149748 0.000120601 0.000147981 0.000313412 0.00018775 0.000147919 -0.0172141 -0.0344151 0.00657332 0.004 300 0 
118 1 1 -0.0307531 -0.0342399 0.00392747 0 0 0 -1.74783e-05 8.76213e-05 6.30871e-05 9.45847e-05 0.000130254 -2.49518e-06 -0.00870731 -0.00241993 0.0108401 0.004 300 0 
30 1 1 -0.0188767 -0.0333735 0.00395386 0 0 0 9.63426e-05 0.000190183 0.00013962 5.07071e-06 3.29947e-05 -8.05039e-05 -0.0122049 0.0357954 -0.00386499 0.004 300 0 
215 1 1 -0.00603715 -0.0313233 0.00390778 0 0 0 0.000127681 0.000268265 1.11839e-05 -0.000192728 0.000115141 -5.32599e-05 -0.0244734 -0.0212073 0.0660313 0.004 300 0 
74 1 1 0.00184623 -0.0338207 0.00390891 0 0 0 -5.03117e-06 0.000112343 -8.84274e-05 -9.43843e-05 0.00042254 0.000217487 -0.0189034 -0.0264656 0.0284246 0.004 300 0 
24 1 1 0.00918266 -0.0308338 0.00391793 0 0 0 -0.000127158 0.000184134 0.000221079 0.000315713 0.000149796 8.71913e-05 0.0072742 -0.0234717 -0.00866926 0.004 300 0 
198 1 1 0.0259084 -0.0339232 0.00395576 0 0 0 -2.98443e-05 2.60181e-05 6.58686e-05 -9.16773e-05 0.000254706 0.000151395 0.0420995 0.0301155 -0.0289396 0.004 300 0 
161 1 1 0.0335156 -0.0316243 0.00391989 0 0 0 -2.038e-05 9.75948e-05 5.50676e-05 -8.79264e-05 -2.26851e-05 -7.45975e-05 -0.0110529 0.00177699 -8.06371e-05 0.004 300 0 
8 1 1 -0.0322721 -0.0264182 0.00398416 0 0 0 5.36107e-05 0.000129774 0.000154357 5.94899e-05 0.000197927 -1.07682e-05 0.0184543 -0.0483796 0.0248403 0.004 300 0 
12 1 1 -0.0244157 -0.0277001 0.0038632 0 0 0 0.000154139 0.000224557 0.000209309 -7.44882e-06 0.000152382 -0.000187888 -0.0606512 0.0455432 -0.00103603 0.004 300 0 
188 1 1 -0.0131751 -0.027777 0.00396678 0 0 0 0.000195565 0.000128599 0.000168854 -7.47507e-05 0.000144017 -0.000165089 0.0283449 0.0301714 -0.0515636 0.004 300 0 
77 1 1 -9.70327e-05 -0.026084 0.00389753 0 0 0 0.000483009 0.000190265 4.39351e-05 0.000332144 0.00055792 0.000209109 0.0124533 0.12061 -0.128882 0.004 300 0 
113 1 1 0.0165699 -0.0280208 0.00388668 0 0 0 -2.60534e-05 2.83383e-05 0.000183125 0.000391314 9.5874e-05 6.01842e-05 0.023652 0.0195046 -0.0424326 0.004 300 0 
183 1 1 0.0384453 -0.0253881 0.00393803 0 0 0 -4.1986e-05 0.000165144 5.75756e-05 3.93493e-05 3.03306e-06 3.24029e-05 -0.0127068 -0.00624299 0.0213801 0.004 300 0 
162 1 1 -0.0396315 -0.0234166 0.0039091 0 0 0 5.75683e-05 1.52065e-07 2.84468e-05 -8.70998e-05 -3.12902e-05 4.28753e-05 -0.0147142 0.0150913 0.0176914 0.004 300 0 
53 1 1 -0.0272091 -0.0202516 0.00395307 0 0 0 0.000507815 6.35266e-05 0.00027595 7.33286e-05 0.000480659 -0.000353009 0.0222621 0.10218 -0.130333 0.004 300 0 
148 1 1 -0.0187611 -0.0220678 0.0039381 0 0 0 0.000211591 0.000214113 0.000138149 -7.39922e-05 7.06158e-05 -0.000211626 -0.0261112 0.0379682 -0.0283265 0.004 300 0 
195 1 1 -0.00728298 -0.0215531 0.00394797 0 0 0 0.000605757 0.000654421 0.00013262 1.18034e-05 -0.000225863 -0.000506497 -0.197401 0.147172 0.297147 0.004 300 0 
179 1 1 0.00735597 -0.0231052 0.00394129 0 0 0 0.000559987 0.000407075 0.000331976 -5.64016e-06 0.000392646 0.000261188 -0.0694472 0.143322 -0.010406 0.004 300 0 
95 1 1 0.0148468 -0.0203104 0.00393151 0 0 0 2.39842e-05 0.000251488 0.000268305 0.000260356 0.000238953 0.000379985 -0.0603139 -0.00115155 0.039365 0.004 300 0 
76 1 1 0.0230029 -0.0233026 0.00397268 0 0 0 -0.000257789 9.28425e-05 4.2036e-05 0.00078528 0.000246516 0.000224554 0.0194539 -0.0688364 0.0724743 0.004 300 0 
100 1 1 0.032565 -0.0200885 0.00388717 0 0 0 -0.000326636 -8.83712e-06 1.92606e-05 0.000486536 0.000276923 0.000587633 0.0366081 -0.0607414 -0.105725 0.004 300 0 
65 1 1 -0.0430758 -0.0162786 0.00393385 0 0 0 7.7464e-05 -0.000133734 3.37227e-05 -0.000100415 -7.3449e-05 8.66107e-05 0.00726071 -0.0105476 -0.0240053 0.004 300 0 
102 1 1 -0.035161 -0.0155065 0.00394423 0 0 0 0.00028244 -7.32121e-05 0.000186068 -0.000137261 0.000122715 0.000122803 0.00662605 0.0280973 0.0814851 0.004 300 0 
213 1 1 -0.013262 -0.0162749 0.0039739 0 0 0 0.000382981 3.05285e-05 8.23595e-05 0.000278147 0.000113644 -0.000546989 0.00705379 0.124554 -0.0512879 0.004 300 0 
10 1 1 0.00114162 -0.0182534 0.00474628 0 0 0 0.00055664 0.000344344 0.000446013 0.000294025 0.000359134 -0.000461912 0.0558958 -0.139721 0.0483269 0.004 300 0 
5 1 1 0.00879436 -0.0152583 0.00390533 0 0 0 0.000217527 0.000377375 0.000433624 -1.02424e-06 0.000221545 -6.4118e-05 -0.0667571 0.0822003 -0.124632 0.004 300 0 
96 1 1 0.0211662 -0.0155246 0.0039545 0 0 0 -5.26811e-05 0.000440492 7.50508e-05 0.000567254 0.00024621 0.000663718 -0.0601295 -0.00957979 0.0278458 0.004 300 0 
167 1 1 0.0421886 -0.0183789 0.00392156 0 0 0 8.27297e-05 0.000105197 -3.19647e-05 -0.000167748 -4.37909e-05 6.60536e-05 -0.0372316 0.0153146 -0.059231 0.004 300 0 
124 1 1 -0.029007 -0.0104714 0.00394598 0 0 0 0.000505662 -9.19489e-05 -4.75956e-05 -0.000226531 0.000375267 -4.66836e-05 0.0210312 0.0997911 -0.115902 0.004 300 0 
220 1 1 -0.0217766 -0.0144581 0.00398135 0 0 0 0.000730242 -0.000230862 0.000256297 0.000456131 0.00020323 -0.00043822 0.094454 0.0986101 0.0557208 0.004 300 0 
144 1 1 -0.00535936 -0.0138037 0.00388157 0 0 0 0.000376515 0.000231994 0.000203684 -6.61855e-06 -0.000362246 -0.000393445 -0.037507 0.0796585 0.00351067 0.004 300 0 
26 1 1 0.00255237 -0.0104651 0.00390758 0 0 0 0.000266669 0.000527607 0.000215334 -0.000324381 -0.000251853 -0.000704738 -0.135034 0.0347667 0.0858478 0.004 300 0 
194 1 1 0.028733 -0.0131052 0.00393089 0 0 0 1.23348e-05 0.000381088 -4.06415e-05 0.0007137 0.000308257 0.000424601 -0.0917487 -0.00656025 -0.0727597 0.004 300 0 
37 1 1 0.0366671 -0.0122376 0.00393373 0 0 0 -4.32499e-05 -0.000109108 -0.000347238 0.00102981 0.000485966 0.00117239 -0.0039557 -0.00208726 -0.0758828 0.004 300 0 
219 1 1 0.0447273 -0.0108799 0.00390754 0 0 0 9.19724e-05 -4.12448e-05 -8.49568e-06 -1.64673e-05 -6.99458e-05 0.000309105 0.054604 0.0113894 0.0461715 0.004 300 0 
636 1 1 -0.0451998 -0.00864093 0.00392095 0 0 0 0.00023403 -0.000173057 -4.75294e-05 -0.000111473 3.89862e-05 9.61362e-05 0.00461535 0.0395956 -0.048348 0.004 300 0 
39 1 1 -0.0161487 -0.00885231 0.00388859 0 0 0 0.000337078 3.99511e-05 0.000261785 -7.83784e-05 -9.59301e-05 -0.000324765 -0.0238183 0.0634122 0.0521604 0.004 300 0 
171 1 1 -0.00396137 -0.00597873 0.00392172 0 0 0 0.000135259 0.000269262 8.15937e-05 -0.000430509 -0.000387377 -0.000295015 -0.0337612 0.0311984 -0.0107687 0.004 300 0 
200 1 1 0.0146253 -0.0098643 0.00396478 0 0 0 7.13229e-05 0.000223123 0.000208799 -1.6657e-07 2.39814e-05 0.000271614 0.0672805 0.0818874 0.163477 0.004 300 0 
21 1 1 0.0222485 -0.00762197 0.00394171 0 0 0 0.000182205 0.000387776 -6.71959e-05 -1.80236e-05 -0.000111618 0.000578917 -0.0411879 0.00770261 -0.12262 0.004 300 0 
17 1 1 0.0298456 -0.00521052 0.00394861 0 0 0 0.00033715 0.000272145 -8.69165e-05 3.29777e-05 -0.00018137 0.000321338 -0.0189596 0.0242177 0.0519325 0.004 300 0 
477 1 1 -0.0445896 -0.000710397 0.0039645 0 0 0 0.000242385 -0.000196331 -0.00011062 -0.000432858 0.000114904 -0.000232144 0.013825 0.0247187 0.0666278 0.004 300 0 
140 1 1 -0.0352689 -0.00371661 0.00387157 0 0 0 0.000332291 -0.000425087 0.000183767 -3.41962e-05 9.42728e-05 -0.000133156 0.117629 0.0537944 -0.0825444 0.004 300 0 
119 1 1 -0.0273902 -0.00269784 0.0039633 0 0 0 0.000337227 -0.000253003 0.000201836 -7.42605e-05 0.000146102 -0.000140785 0.0652911 0.0450948 0.16413 0.004 300 0 
207 1 1 -0.019492 -0.00168827 0.00389391 0 0 0 0.000147587 -4.46096e-05 0.000382583 -0.000720038 0.000172445 0.000119409 0.0166973 0.0339552 0.00726324 0.004 300 0 
69 1 1 -0.011159 -0.00264634 0.00392939 0 0 0 0.000139432 0.000159691 0.000253717 -0.000303806 0.000230452 -0.000515757 0.00251286 0.0286675 -0.0134467 0.004 300 0 
221 1 1 0.00874686 -0.00448387 0.00393176 0 0 0 -8.06363e-05 0.000271428 0.000320007 9.14971e-05 0.000484042 -0.000171961 -0.0952085 -0.0254418 -0.116954 0.004 300 0 
457 1 1 0.0163534 -0.00207951 0.00395827 0 0 0 -0.000596 0.000355218 0.000339064 0.000130155 0.000304616 0.000390282 -0.102834 -0.206008 -0.0447199 0.004 300 0 
155 1 1 0.0378925 -0.00225186 0.00393523 0 0 0 -2.08244e-05 0.000405914 -9.29413e-05 0.000643341 0.000796663 0.000328784 -0.00883484 0.0157417 0.155829 0.004 300 0 
665 1 1 0.0459177 -0.00308209 0.00394249 0 0 0 -0.00012044 0.000213676 -1.60074e-05 -5.2116e-05 -6.4102e-05 0.000253573 -0.0734773 -0.0326496 -0.00204884 0.004 300 0 
120 1 1 0.0091832 -0.0371112 0.00876331 0 0 0 -8.22909e-05 9.31808e-05 1.00187e-05 0.000316557 0.000136313 -2.10397e-05 0.0311526 0.017216 0.0344457 0.004 300 0 
9 1 1 -0.0247131 -0.0333597 0.00937756 0 0 0 6.49103e-05 0.000238919 0.000144725 0.000201459 -0.000140496 1.63747e-05 -0.0180475 -0.0343555 -0.00719357 0.004 300 0 
101 1 1 -0.0188641 -0.027721 0.00955286 0 0 0 0.000371382 0.000433339 0.000132301 -0.000335117 -7.18189e-05 -0.000108025 -0.0306516 0.0337952 -0.0224069 0.004 300 0 
48 1 1 0.0221919 -0.0292877 0.00922572 0 0 0 1.81818e-05 0.000118658 0.00020668 0.000548496 0.000641612 0.000375095 -0.0558948 -0.0243734 0.0495339 0.004 300 0 
75 1 1 0.0293565 -0.0261751 0.00786821 0 0 0 -0.000193698 0.000281593 0.000189621 0.000499071 0.000103492 0.000281668 -0.00466308 0.0288462 0.0441324 0.004 300 0 
46 1 1 -0.0327988 -0.0205743 0.0095829 0 0 0 0.000665101 0.000137093 0.000420357 -1.78674e-05 5.32351e-05 3.1526e-05 0.0340079 -0.0339597 0.0568576 0.004 300 0 
33 1 1 -0.0130361 -0.0220252 0.00949674 0 0 0 0.000430219 0.000192574 0.000367509 -0.000203103 3.25774e-05 -0.000474365 -0.0700472 -0.0349731 -0.0507811 0.004 300 0 
11 1 1 0.0268941 -0.0187478 0.0092424 0 0 0 -0.000288468 0.000466789 0.000186725 0.000551344 0.000402131 0.000240274 0.00672156 0.0966543 -0.0290035 0.004 300 0 
71 1 1 -0.0372785 -0.00953888 0.00877212 0 0 0 0.000245154 -0.000387463 8.17755e-05 -0.000115722 -0.000116384 2.69564e-05 -0.0719572 0.0120968 -0.000741684 0.004 300 0 
62 1 1 -0.0228077 -0.00771274 0.00813874 0 0 0 0.000568633 -0.000218753 0.000453543 -0.000192583 6.11855e-06 0.000273866 0.0652983 -0.124879 0.0173877 0.004 300 0 
19 1 1 -0.00970934 -0.00905518 0.00849137 0 0 0 0.000350239 0.000297543 0.000282996 -0.000369689 -0.000153102 -0.000466884 -5.12242e-05 0.00742547 0.027344 0.004 300 0 
187 1 1 0.00796706 -0.0098789 0.00975497 0 0 0 0.00057389 0.000605414 0.000740695 -0.000208162 0.000564064 -0.000583796 -0.0361756 0.233266 0.0702849 0.004 300 0 
157 1 1 0.039582 -0.00752352 0.00962848 0 0 0 0.000152418 8.93624e-05 -0.000442105 0.000276673 0.000673989 0.000800836 0.00425754 -0.0290665 -0.00823258 0.004 300 0 
18 1 1 0.00229091 -0.00405304 0.0085295 0 0 0 -3.71391e-05 0.000673041 6.58335e-05 1.71714e-05 -0.000675936 -0.00065317 0.0494545 0.032882 0.0403748 0.004 300 0 
185 1 1 -0.00530931 -0.0457359 0.0104436 0 0 0 3.63564e-05 0.000100179 -7.62898e-05 -0.00010554 0.000224716 0.000144688 -0.0283251 0.0440965 -0.019953 0.004 300 0 
83 1 1 0.00256947 -0.0459492 0.0112576 0 0 0 -2.5233e-06 1.51617e-05 3.14674e-05 0.000101122 0.000150541 0.000394827 0.00617481 -0.0737077 -0.00421596 0.004 300 0 
58 1 1 -0.0218558 -0.0405829 0.0112755 0 0 0 4.414e-05 0.000235304 3.68977e-05 8.24793e-05 -0.000185168 0.000550661 -0.00551708 0.0267064 0.0175352 0.004 300 0 
105 1 1 -0.0135838 -0.0439658 0.0108784 0 0 0 0.000166475 0.000164706 -7.47188e-05 -2.95327e-05 5.94651e-05 0.000207841 -0.0317479 0.0295929 0.00782435 0.004 300 0 
223 1 1 0.0103963 -0.0448713 0.0106605 0 0 0 -5.0606e-05 -1.24376e-05 0.00014964 0.000103565 -5.12546e-06 0.000329897 0.0153378 0.0427729 0.00289151 0.004 300 0 
217 1 1 0.017938 -0.0424255 0.0108363 0 0 0 -6.4121e-05 -8.98797e-06 -4.55385e-05 5.58261e-06 0.000324911 -1.49061e-05 -0.0192033 0.0199981 -0.00937486 0.004 300 0 
6 1 1 -0.016259 -0.0350319 0.0113161 0 0 0 0.00015431 0.000301 0.000110605 -2.89334e-05 -1.73076e-05 0.000705644 0.0120588 -0.0491109 -0.0414269 0.004 300 0 
151 1 1 -0.00800778 -0.0382612 0.0108151 0 0 0 0.000222516 0.000312229 -1.19897e-05 -0.00028328 2.3632e-05 -2.98742e-05 0.0564912 -0.017809 -0.0375682 0.004 300 0 
2 1 1 0.000448627 -0.0383101 0.0102754 0 0 0 -3.5386e-06 0.000113589 -0.000147875 8.34672e-05 0.00027709 0.000273532 0.00166061 -0.0285548 0.0206438 0.004 300 0 
117 1 1 0.0249156 -0.0387357 0.0109196 0 0 0 -5.92809e-05 -5.88494e-06 -0.000127592 0.000136576 0.000224445 0.000229644 -0.0378108 -0.0502142 0.0213034 0.004 300 0 
13 1 1 -0.0323451 -0.0327546 0.0115379 0 0 0 4.38684e-05 0.000233339 9.11173e-05 -1.61795e-05 -0.000121339 2.41511e-05 -0.00772669 0.0134937 -0.00852051 0.004 300 0 
193 1 1 -0.00982125 -0.0305027 0.0107748 0 0 0 8.3046e-05 0.000499018 -0.000175437 -9.66094e-05 -2.60026e-05 -3.76517e-05 -0.125663 0.0481842 0.117307 0.004 300 0 
47 1 1 -0.00137035 -0.0305587 0.0103758 0 0 0 0.00249772 0.000871571 0.000657547 0.000273621 0.000714682 0.000357772 -0.0504516 0.386167 -0.149053 0.004 300 0 
153 1 1 0.00653787 -0.0300291 0.0113515 0 0 0 0.00247756 0.000201444 0.00171748 0.000470895 0.000609978 -0.000143722 -0.328566 -0.217159 0.0410854 0.004 300 0 
41 1 1 0.0148029 -0.0317968 0.0106468 0 0 0 6.37331e-05 0.000364647 0.000547724 0.000491824 0.000635861 0.000260975 0.0525961 0.0879373 -0.0931163 0.004 300 0 
163 1 1 0.0311434 -0.0339243 0.011131 0 0 0 -6.35534e-05 0.000151871 6.62722e-05 2.88487e-05 -8.54411e-05 0.00020722 0.0205078 -0.0152074 0.000235492 0.004 300 0 
214 1 1 -0.037502 -0.0268254 0.0107158 0 0 0 0.000126684 0.000202247 0.000163904 -0.000304139 -6.17791e-05 4.95169e-05 0.00985686 -0.0388348 0.0241837 0.004 300 0 
210 1 1 0.0364607 -0.0281041 0.0111156 0 0 0 -4.2847e-05 0.000231842 0.000133121 0.000141947 -0.000101314 0.000140151 0.0152968 0.026759 -0.00616277 0.004 300 0 
108 1 1 -0.0260992 -0.0246405 0.0109242 0 0 0 0.000327981 0.000420212 0.000324901 -0.000330278 0.000120327 -0.000448045 0.0401261 -0.0321739 -0.015729 0.004 300 0 
40 1 1 -0.00551212 -0.0238694 0.0113349 0 0 0 0.000864393 0.000270298 8.0692e-05 -0.000125608 6.75835e-05 -0.000370404 0.241682 -0.0305671 -0.356084 0.004 300 0 
55 1 1 0.00236339 -0.0232756 0.0108279 0 0 0 0.00109475 -4.00173e-06 0.000455381 0.000485257 0.000769671 0.000553693 0.133867 0.00041044 0.233111 0.004 300 0 
91 1 1 0.0120791 -0.0243903 0.010181 0 0 0 0.000505406 0.000751821 0.000853413 0.00017136 0.000866507 0.000286723 0.0527922 -0.196246 0.00649858 0.004 300 0 
112 1 1 0.0192876 -0.0205424 0.0104933 0 0 0 -0.000194833 0.00061374 0.000480246 0.000610365 -0.000173126 0.000179496 0.00288757 -0.0173718 -0.0408843 0.004 300 0 
178 1 1 0.0318484 -0.0225333 0.0144872 0 0 0 -1.83849e-05 0.000406133 0.000599862 0.000276806 -0.000229358 6.10906e-05 0.00242031 0.0479061 0.0472624 0.004 300 0 
131 1 1 0.0407715 -0.0214787 0.01105 0 0 0 3.99875e-05 0.000278486 9.14604e-05 -0.000268541 -0.00023771 0.000109325 0.0129866 0.0239491 -0.0448289 0.004 300 0 
160 1 1 -0.0414733 -0.0199366 0.0108143 0 0 0 7.51242e-05 -3.04184e-05 7.00172e-05 -0.00020119 -9.18322e-05 6.47148e-05 -0.00347339 0.011302 0.0242518 0.004 300 0 
43 1 1 -0.036111 -0.0150939 0.0142635 0 0 0 0.000257445 -4.91161e-05 0.000447195 -0.000526392 9.26762e-05 0.00032696 -0.0314899 -0.0714679 0.0571215 0.004 300 0 
4 1 1 -0.0270363 -0.0151171 0.0100721 0 0 0 0.00059009 0.000436068 0.000183055 -0.000324301 0.000127993 -3.43061e-05 -0.194456 0.0130332 0.00247425 0.004 300 0 
104 1 1 -0.0203054 -0.0192339 0.0111966 0 0 0 0.000508936 0.000469107 0.000274407 -0.000214313 0.000135999 -4.73384e-05 -0.0243842 0.0326209 -0.0389534 0.004 300 0 
20 1 1 -0.00746532 -0.0162253 0.0110889 0 0 0 0.00118965 0.000299759 0.000610305 -0.000298025 -0.000516276 -0.00058561 -0.0721383 0.0488963 0.224937 0.004 300 0 
45 1 1 0.000826356 -0.0164489 0.0146094 0 0 0 0.000585987 0.000700908 0.000681274 0.000280172 0.000782278 -5.31042e-05 -0.14348 -0.0160229 -0.0571002 0.004 300 0 
159 1 1 0.00795782 -0.0177012 0.0113584 0 0 0 0.000468997 0.000739557 0.00102021 0.000350983 0.000992138 -7.39465e-05 -0.0161363 -0.0083941 0.0125918 0.004 300 0 
136 1 1 0.0347939 -0.0163434 0.0104707 0 0 0 -0.000222766 0.00024177 -0.000106893 0.000199775 0.00026559 0.00123022 -0.134452 0.0496428 0.00869132 0.004 300 0 
177 1 1 -0.0443293 -0.0125254 0.010818 0 0 0 0.000114917 -0.000148044 8.34073e-05 3.5126e-05 0.000136362 3.012e-05 -0.00737151 -0.021431 -0.0314947 0.004 300 0 
139 1 1 -0.0168235 -0.0121136 0.011039 0 0 0 0.00066429 0.000316168 0.000638722 9.63257e-05 0.000302614 -0.000650625 -0.0243763 0.0289062 -0.0586405 0.004 300 0 
211 1 1 -0.00209861 -0.0104178 0.0103124 0 0 0 0.000379009 0.000661458 0.000179024 -0.000249977 -0.000282895 -0.000512181 -0.0182976 -0.00910477 0.0488874 0.004 300 0 
54 1 1 0.0149261 -0.013899 0.0108297 0 0 0 0.000137578 0.000582058 0.000810292 0.000781246 -1.88653e-05 -0.000736782 0.0194886 0.0974823 0.0198585 0.004 300 0 
84 1 1 0.0232728 -0.0118065 0.0106564 0 0 0 -0.000531588 0.000854952 0.000102894 0.000472729 0.000549611 0.00021012 -0.0574603 -0.141854 0.0262733 0.004 300 0 
180 1 1 0.0438142 -0.0141094 0.0110445 0 0 0 0.000163264 4.82248e-05 1.79263e-05 -0.000111575 6.92715e-05 0.00050439 -0.105403 -0.0197299 0.0135362 0.004 300 0 
103 1 1 0.0174498 -0.00636599 0.0105706 0 0 0 -0.000531439 0.000562416 0.000702928 0.000481632 8.20198e-05 -0.000214483 0.030606 0.243972 0.0732598 0.004 300 0 
156 1 1 0.0308888 -0.00946587 0.0106316 0 0 0 -0.000147982 0.000441607 -1.36692e-05 0.0002011 -8.942e-05 0.000852222 0.0745157 -0.0235238 -0.0470098 0.004 300 0 
197 1 1 -0.0457822 -0.00470786 0.0107635 0 0 0 0.000161974 -0.00018837 -2.29413e-05 0.000423844 0.000276466 0.000260436 -0.0131688 -0.07373 0.0046434 0.004 300 0 
87 1 1 -0.0386042 -0.00380015 0.0141433 0 0 0 0.000606641 -0.000327524 0.000103342 -0.000817546 9.36571e-05 -1.40241e-05 0.0363351 0.154506 0.0291412 0.004 300 0 
130 1 1 -0.0313601 -0.00387038 0.0107764 0 0 0 0.000489761 -0.000380886 0.000499774 -0.000403175 3.84164e-05 -0.000264748 -0.166083 -0.105943 0.0295423 0.004 300 0 
604 1 1 -0.0224602 -0.000300902 0.0110771 0 0 0 0.000306479 6.64953e-06 0.000850162 -0.000590572 0.000697381 0.000694361 -0.0869207 0.0496493 0.0749287 0.004 300 0 
146 1 1 -0.0155095 -0.00400518 0.0103901 0 0 0 0.000368502 0.000271303 0.0005397 -9.18824e-05 0.000608211 -0.000513113 -0.0521975 0.0604083 -0.0121657 0.004 300 0 
57 1 1 -0.00517679 -0.00310838 0.0111992 0 0 0 0.000258193 0.000527414 0.000376042 -0.000100111 6.40998e-05 -0.00123525 0.0427466 -0.00635662 0.00443443 0.004 300 0 
493 1 1 0.0117147 -0.000864319 0.0103533 0 0 0 -0.000471798 0.000986856 0.000873183 0.000531364 -0.000315863 3.91404e-05 -0.189522 -0.0409491 -0.222368 0.004 300 0 
31 1 1 0.0250537 -0.0040552 0.0104502 0 0 0 -0.000385206 0.000486411 4.72949e-05 0.000284553 -0.000306294 0.000189219 -0.104926 -0.0607767 -0.0397388 0.004 300 0 
588 1 1 0.0326036 -0.00174986 0.0105401 0 0 0 -0.000187376 0.00108605 -0.00019103 0.000120899 -0.000331744 -6.40562e-05 -0.14609 0.039786 0.190531 0.004 300 0 
63 1 1 0.0459258 -0.00328375 0.0119224 0 0 0 -0.00037626 0.000164769 5.14926e-05 0.000119877 -7.65367e-05 0.00063816 0.189084 -0.00606221 0.0548227 0.004 300 0 
107 1 1 -0.00848301 -0.0452755 0.0176853 0 0 0 1.81656e-05 6.62343e-05 -6.52935e-05 0.000269684 -0.000121508 0.00055227 -0.00981825 0.0544656 -0.00961228 0.004 300 0 
222 1 1 -0.00139651 -0.0418025 0.0171281 0 0 0 -0.000206392 0.000182352 -0.000229182 0.000199874 0.000199581 0.000542931 -0.0192505 -0.0525734 0.0565203 0.004 300 0 
142 1 1 0.0061738 -0.0401507 0.0154159 0 0 0 -5.35566e-05 0.000338392 1.13272e-05 9.37751e-05 0.000291344 0.000306625 -0.124937 -0.0322317 -0.016175 0.004 300 0 
172 1 1 0.0116183 -0.0446328 0.0189919 0 0 0 -0.00014098 5.84091e-05 -0.00020561 7.48109e-05 4.40793e-05 -2.31009e-05 0.0211883 -0.25723 0.0318518 0.004 300 0 
109 1 1 0.0203948 -0.0412961 0.0183399 0 0 0 0.000185723 0.000103366 -8.38581e-05 3.04393e-05 0.0003261 -7.74091e-05 -0.030125 0.0569789 -0.0312038 0.004 300 0 
150 1 1 -0.0273271 -0.0370834 0.0158758 0 0 0 5.65175e-05 0.000293248 9.12049e-05 -3.88778e-05 -0.000439127 5.97828e-05 -0.013161 -0.00256379 0.0305864 0.004 300 0 
38 1 1 -0.0197754 -0.0373738 0.0182754 0 0 0 0.00022294 0.000408643 9.2945e-05 8.34967e-06 -6.58927e-05 0.000521786 -0.057676 0.000381447 -0.049949 0.004 300 0 
199 1 1 -0.0118484 -0.0370397 0.0176537 0 0 0 0.000269215 0.000291813 -7.55695e-05 0.000170941 0.000103316 0.000611028 -0.0201626 0.0741025 0.0230872 0.004 300 0 
93 1 1 0.0137659 -0.037767 0.0156965 0 0 0 0.000220491 0.000108765 7.33085e-05 0.0001605 0.000412038 0.000187319 0.0403929 0.0381057 -0.0546271 0.004 300 0 
64 1 1 0.0279627 -0.0365308 0.0179526 0 0 0 0.000182466 0.000244843 -0.000146932 8.8551e-05 1.08055e-05 0.000424803 -0.0325152 0.0807015 -0.0473794 0.004 300 0 
22 1 1 -0.0327439 -0.0324225 0.0194587 0 0 0 0.000269417 0.000180595 0.000121283 -0.000229394 -0.000455677 -0.000249011 0.0597605 0.0560579 -0.013322 0.004 300 0 
174 1 1 -0.0224336 -0.0302117 0.0162649 0 0 0 0.000242038 0.000424829 0.000116279 -0.000213041 -5.32517e-05 0.000181541 0.0248858 0.106664 0.0246749 0.004 300 0 
32 1 1 -0.00428186 -0.0343985 0.0166931 0 0 0 0.000660253 0.00037993 -0.000655218 -0.000272105 -0.000169271 -0.000100156 0.257617 -0.346978 -0.202264 0.004 300 0 
128 1 1 0.00348373 -0.0331462 0.0179912 0 0 0 0.000115992 3.45224e-05 0.000738752 -8.39282e-05 0.000630467 -0.000535223 0.473644 -0.0966846 -0.0367058 0.004 300 0 
88 1 1 0.0113592 -0.0304653 0.0176882 0 0 0 0.00250294 -0.000113558 0.00276125 0.000462798 0.000803447 0.000356556 0.22456 0.698353 -0.0961466 0.004 300 0 
137 1 1 0.020743 -0.0338557 0.0156009 0 0 0 0.000575807 0.000312794 -3.91812e-05 9.08025e-05 0.000710983 0.000556634 0.0433226 0.213257 -0.193207 0.004 300 0 
154 1 1 0.0339835 -0.0311467 0.0180479 0 0 0 4.90506e-05 0.00019654 0.000173856 0.000214828 -8.38685e-05 0.000183272 -0.0129196 0.0640876 -0.0176439 0.004 300 0 
52 1 1 -0.031991 -0.0252368 0.0161641 0 0 0 0.000196713 0.000387607 0.000342488 -0.000619364 -0.000525036 -0.000253106 -0.010466 0.0131158 0.014149 0.004 300 0 
80 1 1 -0.00960316 -0.0265113 0.017591 0 0 0 0.000383089 0.000272562 -0.000318526 -0.000247238 0.000116272 4.03802e-06 0.139829 0.0434553 -0.103911 0.004 300 0 
125 1 1 -0.00114271 -0.0266987 0.017358 0 0 0 -0.000685618 -0.000288739 0.000896696 -0.00031206 0.000984746 0.000113138 -0.125076 -0.401824 0.284762 0.004 300 0 
72 1 1 0.017937 -0.0264455 0.015608 0 0 0 0.000689266 0.0006048 0.000555 0.000355056 0.000510247 0.000471368 -0.0181888 0.158322 0.164908 0.004 300 0 
34 1 1 0.0269541 -0.0287382 0.0154528 0 0 0 -0.000179147 0.000263235 0.000554236 0.00041992 0.000184104 0.000410066 0.0824328 -0.0102056 -0.00335732 0.004 300 0 
218 1 1 -0.0395973 -0.0234617 0.0176932 0 0 0 0.000141021 9.46871e-05 0.000144391 -0.000454839 -0.000347133 7.45834e-05 -0.00656013 -0.0471885 0.046573 0.004 300 0 
70 1 1 -0.024719 -0.0230234 0.0185698 0 0 0 0.000267234 0.0003714 0.000323971 -0.000412057 2.90919e-05 -0.000141892 -0.0379766 0.0823887 0.0361479 0.004 300 0 
132 1 1 -0.0171328 -0.0242639 0.0164749 0 0 0 0.000350611 0.000494491 7.67157e-05 -0.000261608 0.000365138 -0.000139216 0.040539 -0.0299842 0.0172989 0.004 300 0 
196 1 1 0.00716567 -0.0237607 0.0170749 0 0 0 0.00118518 -0.000625575 0.000829232 0.000676743 0.00061795 0.000452006 -0.263927 -0.431428 0.125042 0.004 300 0 
362 1 1 0.0243919 -0.0214433 0.0171325 0 0 0 0.000198361 0.000730519 9.98267e-05 0.000762082 0.000303388 0.000411309 -0.128448 -0.327708 -0.227833 0.004 300 0 
49 1 1 0.0387587 -0.0248091 0.0179832 0 0 0 0.000110697 0.00026375 -2.72785e-05 -0.000236525 7.64246e-06 -1.06442e-06 -0.0220148 0.0276216 0.00777532 0.004 300 0 
173 1 1 -0.0431201 -0.0163106 0.0177147 0 0 0 9.51786e-05 -0.000150832 0.000154262 -0.000364125 4.12888e-05 -3.25405e-05 0.0310137 -0.0131352 -0.0181664 0.004 300 0 
50 1 1 -0.0295077 -0.0167644 0.0182818 0 0 0 0.000245413 0.000450135 0.00059744 -0.000644379 0.000165476 0.000362088 -0.0207458 0.0570759 0.0147121 0.004 300 0 
202 1 1 -0.0134667 -0.0172155 0.0161115 0 0 0 0.000731457 0.000153138 0.00057688 -0.000157731 0.000626791 -0.000653297 0.00783083 -0.100518 -0.181225 0.004 300 0 
86 1 1 -0.005243 -0.0199286 0.0183764 0 0 0 0.000414304 0.000647277 0.000547239 5.40499e-05 0.000298422 -1.20979e-05 0.128124 -0.0272294 0.101787 0.004 300 0 
129 1 1 0.0138808 -0.0196403 0.0162777 0 0 0 0.000392123 0.000396099 0.00151982 0.00043019 0.000780646 -0.000219633 0.14029 0.238527 -0.00926184 0.004 300 0 
82 1 1 0.0291376 -0.0151435 0.0159332 0 0 0 6.43689e-05 0.000173128 0.000207424 -0.0013638 -0.000200859 -0.000154524 0.165344 0.0451922 0.0942279 0.004 300 0 
1 1 1 0.0424628 -0.0178135 0.01788 0 0 0 -0.000112155 0.000143328 0.000242803 -0.000212895 -9.49029e-05 0.000258808 0.10527 -0.0848088 0.0157023 0.004 300 0 
168 1 1 -0.02248 -0.013632 0.0164135 0 0 0 0.000527791 0.000581698 0.000440462 -0.000222667 0.000624292 -0.000199246 0.0569891 -0.0630143 -0.0559408 0.004 300 0 
121 1 1 -0.00516969 -0.0120348 0.0174537 0 0 0 0.000958476 0.00059802 0.000535554 -0.000211238 -0.000574656 -0.000179318 0.0274025 0.00250725 0.0625615 0.004 300 0 
28 1 1 0.00812737 -0.0139668 0.0183312 0 0 0 0.000410479 0.00058663 0.00200727 0.000781669 0.000143758 -0.000130789 0.26889 0.337406 0.609655 0.004 300 0 
42 1 1 0.0200627 -0.0148213 0.0172735 0 0 0 -0.000194241 0.000846581 8.54974e-05 -0.000328435 0.000371948 -0.00039813 0.12138 0.390642 0.262579 0.004 300 0 
60 1 1 0.0376325 -0.0116477 0.0161647 0 0 0 -0.000472996 0.000550684 -0.000358924 -0.000870313 0.000449719 0.000680295 -0.0290932 -0.0862097 -0.0572452 0.004 300 0 
135 1 1 -0.0452101 -0.00864337 0.0176853 0 0 0 -6.26512e-05 -0.000120862 9.50761e-05 0.000410026 0.000235483 0.0002112 -0.00528618 -0.0341383 0.0152107 0.004 300 0 
81 1 1 -0.0376094 -0.00944799 0.01995 0 0 0 -0.000497463 4.36295e-05 0.000454458 -0.000844764 0.00042364 0.000125693 -0.103493 -0.0345958 -0.0213519 0.004 300 0 
190 1 1 -0.030351 -0.00906454 0.01668 0 0 0 -9.61243e-05 0.000234735 0.00108021 -0.000564443 0.000523475 0.000148691 0.0581039 -0.184636 0.0876758 0.004 300 0 
7 1 1 -0.0204518 -0.00598605 0.0162514 0 0 0 0.000812864 0.0003542 0.000977072 -0.000207571 0.000774665 -0.000109201 0.0873312 0.124196 -0.00802383 0.004 300 0 
145 1 1 -0.0119993 -0.00832344 0.0160604 0 0 0 0.000658115 0.000188527 0.000676882 0.000150863 0.00016202 -0.00048999 0.0338708 0.0316047 0.0504239 0.004 300 0 
186 1 1 0.00211543 -0.00892512 0.0168824 0 0 0 0.000848585 0.000959669 -0.000308529 -6.37106e-06 0.000101081 -2.73944e-05 -0.0387189 0.267934 0.0903247 0.004 300 0 
56 1 1 0.0144264 -0.00918208 0.0173855 0 0 0 -0.000329284 0.00146499 0.00159551 0.00059612 0.000854531 -0.000399517 -0.153197 -0.051071 -0.352209 0.004 300 0 
191 1 1 0.0221442 -0.00719882 0.0170758 0 0 0 -0.000396167 0.000591689 0.000696017 -0.000465193 0.000329939 -0.000212609 0.222893 0.240223 -0.22362 0.004 300 0 
208 1 1 0.0315159 -0.00610667 0.0178073 0 0 0 -0.000474612 0.000624159 -0.000866264 0.000294391 0.000989835 6.12758e-05 -0.174263 0.0388118 0.0295027 0.004 300 0 
92 1 1 0.0451159 -0.00920768 0.0172046 0 0 0 -0.000221348 0.000240852 -0.000164556 -0.000186482 0.000127297 0.000162978 -0.0675176 -0.0280829 -0.0175954 0.004 300 0 
192 1 1 -0.046078 -0.000753619 0.0176248 0 0 0 0.000109679 -0.000116863 -4.48746e-05 0.000527148 0.000507586 0.000564022 -0.000368363 0.053907 -0.026565 0.004 300 0 
462 1 1 -0.0271602 -0.00181662 0.0172847 0 0 0 0.000597134 3.67074e-05 0.00153031 -0.000203248 0.00129504 0.000795787 0.0783398 0.0880597 -0.230692 0.004 300 0 
450 1 1 -0.0128131 -0.000776061 0.0182627 0 0 0 0.00028259 0.000178908 0.000401321 0.000931813 -4.40465e-05 -0.000756161 -0.115068 -0.0944341 -0.0206586 0.004 300 0 
111 1 1 -0.00561644 -0.00407928 0.0190645 0 0 0 0.000252733 0.000125282 0.000221438 0.000335235 0.000342059 -0.00085104 0.148357 0.00534387 0.0539421 0.004 300 0 
622 1 1 0.0010074 -0.00112263 0.01577 0 0 0 0.000341904 0.000120093 0.000249902 -9.34302e-05 -0.000520084 -0.000831581 0.0451904 0.0198425 -0.105085 0.004 300 0 
106 1 1 0.00835538 -0.00406303 0.0167648 0 0 0 0.000360978 0.0018878 0.00198756 -9.5459e-05 -0.000372974 -0.000561009 0.886239 -0.38318 0.170624 0.004 300 0 
651 1 1 0.0260981 -0.00028793 0.0173919 0 0 0 -0.000324944 0.00041276 -0.00039767 0.000766467 -0.000348935 6.30834e-05 -0.0916543 0.257765 0.118168 0.004 300 0 