ITEM: TIMESTEP
15200
ITEM: NUMBER OF ATOMS
890
ITEM: BOX BOUNDS mm mm mm
-0.05 0.05
-0.05 0.05
0 0.15
ITEM: ATOMS id type type x y z ix iy iz vx vy vz fx fy fz omegax omegay omegaz radius f_Temp[0] f_heatFlux[0] 
59 1 1 -0.000715239 -0.0460986 0.00395576 0 0 0 6.05971e-06 -1.44401e-05 -3.89901e-05 -3.52446e-05 7.8374e-05 5.79876e-05 -0.0129417 0.0119996 0.011681 0.004 300 0 
170 1 1 -0.0173495 -0.0426413 0.00397306 0 0 0 -2.31478e-06 -7.94748e-06 -1.38606e-05 -6.68207e-05 1.61976e-05 3.26398e-05 -0.000901358 0.00121759 -0.000392413 0.004 300 0 
15 1 1 -0.00974998 -0.0449637 0.00393385 0 0 0 2.59178e-05 -1.36074e-05 -7.1739e-05 -4.47923e-05 2.07597e-05 2.92774e-05 0.000932473 0.0147055 -0.00418075 0.004 300 0 
116 1 1 0.00648833 -0.0428207 0.00395794 0 0 0 2.39642e-05 -1.85776e-05 -5.69008e-05 2.71641e-05 5.77002e-05 1.22989e-05 0.00962748 -0.00403721 -0.0143944 0.004 300 0 
158 1 1 0.0143643 -0.0437617 0.00390005 0 0 0 3.81804e-05 -3.78952e-05 -3.5154e-05 5.11967e-05 -1.01446e-05 3.90321e-06 0.000690016 0.0049568 -0.000198572 0.004 300 0 
98 1 1 0.0216816 -0.0406508 0.00394123 0 0 0 4.73188e-05 -4.27357e-05 -6.74812e-05 -3.50056e-05 7.77073e-06 1.32278e-05 -0.00129987 0.00373332 -0.00829765 0.004 300 0 
169 1 1 -0.0244316 -0.0390659 0.00391423 0 0 0 -4.92562e-05 -3.93395e-05 -3.89486e-05 1.44961e-06 2.33274e-05 4.64452e-05 0.000371661 -0.0108205 0.00507694 0.004 300 0 
89 1 1 -0.0118104 -0.0369237 0.00395484 0 0 0 6.51998e-07 -1.09538e-05 -5.34826e-05 -0.00016041 -8.617e-06 3.52125e-05 -0.000809059 0.00475423 0.0112184 0.004 300 0 
152 1 1 -0.0041814 -0.0390216 0.00390564 0 0 0 6.62953e-06 -6.50371e-05 -8.92017e-05 -0.000190587 2.84503e-05 2.88131e-05 0.00808842 0.0113603 -0.0194457 0.004 300 0 
23 1 1 0.0153497 -0.0358821 0.00391068 0 0 0 6.62703e-05 -7.22151e-05 -9.08132e-05 -1.43806e-05 -3.17948e-06 -2.25002e-05 0.00286195 0.00855096 0.00699659 0.004 300 0 
118 1 1 -0.0307534 -0.0342397 0.00392723 0 0 0 -1.24255e-05 -4.23512e-05 -2.68581e-05 5.0774e-05 2.63056e-05 4.09082e-05 0.0058578 0.00179501 -0.00665198 0.004 300 0 
30 1 1 -0.0188781 -0.0333726 0.00395302 0 0 0 -4.61721e-05 -7.02252e-05 -6.43682e-05 -2.85408e-05 5.58752e-05 9.14025e-05 0.00270459 -0.00370312 0.00187118 0.004 300 0 
215 1 1 -0.00603653 -0.0313233 0.00390705 0 0 0 -3.83333e-05 -7.19311e-05 -6.03282e-05 -2.79879e-05 -1.05837e-05 7.7081e-06 0.00375583 -0.0133371 0.0213527 0.004 300 0 
74 1 1 0.00184338 -0.0338199 0.00390749 0 0 0 2.21642e-05 -0.000153446 -0.000126971 -3.84289e-05 1.25887e-05 6.44925e-05 0.0165602 -0.00113602 -0.00313392 0.004 300 0 
24 1 1 0.00918097 -0.0308338 0.00391973 0 0 0 3.40482e-05 -0.0001196 -9.27818e-05 -6.66521e-06 3.4225e-05 4.16739e-05 0.0156328 0.00502076 0.0294096 0.004 300 0 
198 1 1 0.0259151 -0.0339278 0.00395452 0 0 0 9.25314e-05 -3.27636e-05 -0.000118462 7.76683e-05 -0.000174076 -2.86612e-05 -0.0129262 -0.000374724 0.00438969 0.004 300 0 
161 1 1 0.0335181 -0.0316203 0.00391923 0 0 0 5.21829e-05 3.37219e-05 -9.51858e-05 -5.30612e-06 -7.56663e-05 -1.31934e-05 -0.0153172 -0.00532544 0.00390678 0.004 300 0 
8 1 1 -0.0322718 -0.0264172 0.003984 0 0 0 -5.45956e-06 -6.20662e-05 -5.83625e-05 0.000103366 7.5554e-05 4.60591e-05 -0.00278566 0.0051314 0.00264916 0.004 300 0 
12 1 1 -0.0244159 -0.027698 0.00386316 0 0 0 -1.93372e-05 -7.2129e-05 -5.9533e-05 6.169e-05 0.000104284 0.000138114 0.00936329 -0.00949149 -0.00463801 0.004 300 0 
188 1 1 -0.0131752 -0.0277769 0.0039663 0 0 0 -2.38936e-05 -0.00012089 -9.52985e-05 8.04934e-05 8.30568e-05 0.000106543 0.022724 -0.0100016 -0.0139986 0.004 300 0 
77 1 1 -9.62338e-05 -0.026083 0.00389661 0 0 0 3.2177e-05 -0.000143201 -0.000106968 -2.41037e-05 9.951e-05 0.000138689 0.0214809 0.0215617 -0.0279981 0.004 300 0 
113 1 1 0.0165695 -0.0280208 0.00388835 0 0 0 5.96892e-05 -8.35672e-05 -0.000111218 -3.26706e-05 -6.31155e-05 2.81569e-05 0.017047 0.0142661 -0.024094 0.004 300 0 
183 1 1 0.0384472 -0.0253844 0.00393822 0 0 0 9.7542e-05 7.73531e-05 -6.66226e-05 -3.14275e-05 6.42749e-06 1.79988e-06 -0.00405313 -0.00400162 -0.0304787 0.004 300 0 
162 1 1 -0.0396317 -0.0234166 0.00390907 0 0 0 -4.8749e-06 -3.82705e-05 -5.29455e-05 7.70084e-05 3.32702e-05 7.63376e-06 0.00783226 -0.000726907 -0.014612 0.004 300 0 
53 1 1 -0.0272094 -0.0202498 0.00395244 0 0 0 5.74671e-05 -7.55935e-05 -2.93354e-05 8.74366e-05 0.000166188 0.000135481 0.0209403 -0.00136443 -0.00914415 0.004 300 0 
148 1 1 -0.01876 -0.0220661 0.00393763 0 0 0 -4.38523e-06 -8.40432e-05 -9.81455e-05 3.65901e-06 4.2153e-05 0.000158187 0.0100245 0.00377578 0.00458986 0.004 300 0 
195 1 1 -0.00727789 -0.0215516 0.00394694 0 0 0 -9.89678e-05 -4.28242e-05 -6.33963e-05 -3.32184e-05 0.000147954 0.00017335 0.00832892 -0.0214071 -0.0479013 0.004 300 0 
179 1 1 0.00736586 -0.0231035 0.00394342 0 0 0 0.00021957 -6.61295e-05 -7.46532e-05 -0.000305223 7.59188e-06 0.000133939 0.00196486 0.0586479 0.025214 0.004 300 0 
95 1 1 0.01485 -0.0203106 0.00393202 0 0 0 0.000133424 -5.78478e-05 -7.46525e-05 -0.000177533 -9.59184e-06 6.68143e-05 0.0103358 0.0238334 0.00991335 0.004 300 0 
76 1 1 0.023003 -0.0233037 0.00397328 0 0 0 0.00016433 2.36348e-06 -0.000170701 8.68336e-05 -0.000194792 -0.000162613 0.0136665 0.0436733 0.0273507 0.004 300 0 
100 1 1 0.0325584 -0.0200914 0.00388569 0 0 0 0.000166925 0.000107989 -0.000119494 6.12438e-05 -7.72822e-05 -5.77097e-05 -0.040212 0.0374002 0.0399707 0.004 300 0 
65 1 1 -0.0430759 -0.0162785 0.00393382 0 0 0 -3.14847e-06 9.80625e-06 -4.7421e-05 8.03056e-05 7.84873e-05 8.39957e-05 -0.00121597 0.00468452 0.0104383 0.004 300 0 
102 1 1 -0.0351612 -0.0155067 0.0039444 0 0 0 2.4192e-05 -6.69599e-05 -0.000126367 0.000136362 0.000159858 0.000148715 0.033527 0.00764995 -0.0420076 0.004 300 0 
213 1 1 -0.0132599 -0.0162751 0.00397316 0 0 0 -1.26939e-05 -4.97076e-05 -1.93491e-06 8.86744e-05 -2.96685e-05 2.38856e-05 0.0434682 0.0067132 0.0222875 0.004 300 0 
10 1 1 0.0011472 -0.0182543 0.00475042 0 0 0 0.00016489 -7.11091e-05 4.03375e-06 -0.0002891 8.36396e-05 0.000224592 -0.0105449 -0.0208393 -0.00467505 0.004 300 0 
5 1 1 0.00879695 -0.0152572 0.00390424 0 0 0 4.83881e-05 -9.78054e-05 -8.74705e-05 -0.000252214 -5.84573e-05 0.000173554 0.0188229 -0.0222586 -0.0105445 0.004 300 0 
96 1 1 0.0211677 -0.0155239 0.00395555 0 0 0 0.000140892 1.99535e-05 -9.24355e-05 -5.88322e-05 -8.76386e-05 -0.000143116 0.0017839 0.0202874 0.00932236 0.004 300 0 
167 1 1 0.0421895 -0.0183755 0.00392063 0 0 0 0.000123934 9.41204e-05 -5.28852e-05 -1.99888e-05 -0.000125868 7.54337e-05 -0.00441845 0.0233404 0.0124182 0.004 300 0 
124 1 1 -0.0290077 -0.0104707 0.00394614 0 0 0 8.34197e-05 -2.77634e-05 6.29261e-05 0.000168165 1.41103e-05 3.77365e-05 0.019457 -0.00510447 0.0423914 0.004 300 0 
220 1 1 -0.0217767 -0.0144565 0.0039811 0 0 0 1.08347e-05 8.02429e-05 0.000200258 0.000113925 1.96593e-05 0.000146526 0.0203709 -0.0217373 0.0407938 0.004 300 0 
144 1 1 -0.00535578 -0.0138047 0.00388073 0 0 0 5.46969e-05 1.58913e-05 1.75783e-05 -0.000103343 0.000365397 0.000463211 -0.00162873 0.019824 0.0148914 0.004 300 0 
26 1 1 0.00255453 -0.010465 0.00390562 0 0 0 1.81786e-05 -6.9647e-05 -3.18524e-05 -5.02339e-05 0.000306247 0.000581979 0.0096387 0.0115075 0.0169731 0.004 300 0 
194 1 1 0.0287343 -0.0131047 0.00393041 0 0 0 0.000129294 4.67923e-05 -8.39013e-05 6.35302e-05 -0.000307122 -0.000100425 -0.00957654 0.018421 -0.0154779 0.004 300 0 
37 1 1 0.0366697 -0.0122349 0.00393472 0 0 0 -0.000150753 0.000542206 2.00678e-05 -0.000121532 0.000125178 -0.000124978 -0.0708339 -0.0617401 0.224939 0.004 300 0 
219 1 1 0.0447282 -0.0108766 0.0039077 0 0 0 2.02266e-05 4.82796e-05 -9.38602e-05 0.000103276 -0.000206764 9.99223e-06 -0.00716141 -0.00641684 -0.000692926 0.004 300 0 
636 1 1 -0.0451998 -0.0086409 0.00392093 0 0 0 -7.544e-05 8.06465e-06 -4.86041e-05 2.15619e-05 7.33401e-05 8.83966e-05 -0.00401978 -0.0127252 0.0125059 0.004 300 0 
39 1 1 -0.0161475 -0.00885199 0.00388875 0 0 0 0.00020216 0.000106502 7.58401e-05 -2.47416e-05 0.000163334 3.37194e-05 -0.0521898 0.0432184 -0.066682 0.004 300 0 
171 1 1 -0.00396043 -0.00597936 0.00391929 0 0 0 7.55422e-05 2.54355e-06 7.46932e-05 7.72713e-05 0.00025852 0.000408281 -0.0100385 0.0230216 -0.0483918 0.004 300 0 
200 1 1 0.0146275 -0.00986413 0.00396488 0 0 0 0.000151023 -5.13701e-05 -4.01818e-05 -0.000205802 -3.39522e-05 0.000138242 0.00121787 -0.0079913 0.0227857 0.004 300 0 
21 1 1 0.0222504 -0.00762121 0.00394298 0 0 0 0.000214438 1.10611e-05 -2.28669e-05 -0.000174703 -9.63543e-05 -5.64593e-05 0.00640169 0.0352701 -0.0294831 0.004 300 0 
17 1 1 0.0298469 -0.00520973 0.00394912 0 0 0 0.000118583 1.2947e-05 1.05623e-05 -0.000426764 -0.000128203 -4.38001e-05 0.0154438 -0.0128795 0.0291838 0.004 300 0 
477 1 1 -0.0445899 -0.000710272 0.00396432 0 0 0 -0.000100366 4.36963e-07 -0.000101527 3.09285e-05 8.51147e-05 0.000103733 -0.0039719 -0.00863874 -0.00895273 0.004 300 0 
140 1 1 -0.035269 -0.0037165 0.00387146 0 0 0 8.58386e-05 6.82722e-05 -3.77831e-05 1.35326e-06 0.000139038 0.00012197 -0.0451937 0.00771102 0.0544168 0.004 300 0 
119 1 1 -0.0273902 -0.0026973 0.00396319 0 0 0 0.000133984 6.26577e-05 -4.18659e-05 5.2728e-05 2.89149e-05 -6.3183e-05 -0.0204587 -0.00193697 -0.0400435 0.004 300 0 
207 1 1 -0.0194914 -0.00168748 0.00389378 0 0 0 0.000337255 8.74434e-05 -2.45777e-05 1.5076e-05 -8.11406e-05 0.000384472 -0.0209229 0.0578423 0.0331319 0.004 300 0 
69 1 1 -0.0111577 -0.00264617 0.00392907 0 0 0 0.000161077 0.000166483 0.000184945 -0.000201307 9.1762e-05 0.000228049 -0.0392117 0.0587823 0.00622483 0.004 300 0 
221 1 1 0.00874736 -0.00448592 0.00393141 0 0 0 -8.29247e-05 -0.000111233 -7.02893e-05 -0.000316583 2.50442e-05 0.000334515 0.00356234 -0.0189734 0.00700178 0.004 300 0 
457 1 1 0.0163523 -0.00208019 0.00396005 0 0 0 -0.000141316 -6.51531e-05 -5.89996e-07 -0.00017384 1.65329e-05 8.45183e-05 0.0674539 -0.00118228 0.0673158 0.004 300 0 
155 1 1 0.0378921 -0.00224983 0.00393628 0 0 0 -0.000227751 0.000532231 0.000194273 0.000214831 -9.56571e-05 -0.000184339 -0.157584 -0.0428776 -0.20758 0.004 300 0 
665 1 1 0.0459174 -0.00307907 0.00394218 0 0 0 3.46594e-05 -9.91171e-06 3.31646e-05 0.000121025 -0.000345745 4.19596e-06 0.0428772 0.00628094 -0.00018474 0.004 300 0 
120 1 1 0.00918458 -0.0371095 0.00876638 0 0 0 0.000142494 -0.000111044 -7.73699e-05 -0.000113337 9.47502e-05 -0.000114652 -0.00368423 0.00960972 -0.0167714 0.004 300 0 
9 1 1 -0.0247144 -0.0333594 0.00937636 0 0 0 -7.12294e-05 -5.64774e-05 -8.98898e-05 7.87081e-06 8.05763e-05 0.000120968 -0.00772305 0.00877011 -0.0109389 0.004 300 0 
101 1 1 -0.0188648 -0.0277199 0.00955163 0 0 0 0.000156462 -6.65238e-05 -0.00012796 9.35697e-05 0.000114163 0.000146214 -0.0154407 0.0673932 -0.0194819 0.004 300 0 
48 1 1 0.0221953 -0.029296 0.00922308 0 0 0 0.000102062 -2.24327e-05 -0.000292475 0.000111962 -5.34524e-05 -0.000134235 -0.0319512 0.0273775 0.0443052 0.004 300 0 
75 1 1 0.0293576 -0.0261756 0.00787196 0 0 0 8.44402e-05 1.07768e-05 -0.000251413 9.48083e-05 -0.000100404 -6.69938e-05 0.0501937 -0.0610102 -0.0408376 0.004 300 0 
46 1 1 -0.0327984 -0.0205742 0.00958316 0 0 0 -3.49381e-05 -0.00015917 -0.000247114 0.000250067 0.000153432 0.000245572 -0.0214868 -0.0500903 0.0464094 0.004 300 0 
33 1 1 -0.0130338 -0.022026 0.00949541 0 0 0 -1.73077e-05 -1.97874e-05 -0.000125035 -1.08832e-05 7.69242e-05 0.000227408 -0.0509169 -0.0306161 -0.0259077 0.004 300 0 
11 1 1 0.0268896 -0.0187455 0.00924277 0 0 0 0.00015572 5.50302e-05 -0.000210157 5.83813e-05 -0.000165476 -0.000118745 -0.0226538 -0.0126286 0.0234387 0.004 300 0 
71 1 1 -0.0372789 -0.00953914 0.00877201 0 0 0 0.000116926 2.85412e-05 -2.24054e-05 0.000196971 0.000202141 0.000244944 0.0390934 -0.0275073 -0.0337111 0.004 300 0 
62 1 1 -0.0228075 -0.00771213 0.00813875 0 0 0 0.000224655 0.000199179 2.7637e-05 0.000199373 8.68596e-05 -7.77962e-05 -0.0958734 0.078053 -0.0168702 0.004 300 0 
19 1 1 -0.00970788 -0.00905756 0.00848975 0 0 0 0.00016166 0.000210924 0.00012974 0.000125277 0.00060074 0.000474162 -0.00528927 0.00646074 -0.0278293 0.004 300 0 
187 1 1 0.00796736 -0.00987952 0.00975547 0 0 0 -0.000230488 -0.00019936 -0.000168473 6.96858e-05 -0.000110395 0.000280304 0.022479 -0.0686934 0.038575 0.004 300 0 
157 1 1 0.039584 -0.00752102 0.00962904 0 0 0 -0.000315668 0.000506256 0.000309635 -0.000115685 -0.000253538 -0.000384088 0.145142 0.189383 0.00663173 0.004 300 0 
18 1 1 0.00229052 -0.004052 0.00852517 0 0 0 -7.94475e-05 5.41783e-05 0.000119343 -0.000359839 0.0010677 0.00119114 -0.0298481 0.0380304 0.0357498 0.004 300 0 
185 1 1 -0.00531038 -0.0457351 0.010443 0 0 0 -8.46475e-05 -2.03085e-05 -4.7256e-05 -0.000148693 -9.16841e-05 2.14848e-05 -0.00345765 -0.0570665 0.0114296 0.004 300 0 
83 1 1 0.00256809 -0.0459482 0.0112605 0 0 0 -9.33793e-06 -1.89806e-05 -2.64746e-05 -0.000115864 1.28033e-06 -3.46557e-05 -0.0165485 0.0541626 -0.00691569 0.004 300 0 
58 1 1 -0.0218561 -0.0405823 0.0112763 0 0 0 -0.000131388 6.74847e-07 -7.1915e-05 3.46468e-05 6.21006e-06 5.76622e-05 -0.00984668 0.00718389 0.0282038 0.004 300 0 
105 1 1 -0.0135846 -0.0439661 0.0108782 0 0 0 7.38686e-05 1.49136e-05 -8.14081e-05 -0.000280351 -4.63686e-05 0.000199955 -0.00944112 0.0326006 0.00411851 0.004 300 0 
223 1 1 0.0103953 -0.0448694 0.0106654 0 0 0 3.85589e-05 -4.43794e-05 -0.000101259 8.51101e-06 4.55653e-05 -0.000100378 -0.00520128 -0.0227612 -0.00855942 0.004 300 0 
217 1 1 0.0179407 -0.0424256 0.0108325 0 0 0 4.88377e-05 -6.5047e-05 -4.85186e-05 -7.86178e-05 5.26836e-05 0.000111019 0.00722255 0.00880764 0.00313262 0.004 300 0 
6 1 1 -0.0162608 -0.0350303 0.0113131 0 0 0 -0.000126747 -0.000182201 -0.000111254 4.15977e-05 6.54458e-05 0.000103391 -0.0126429 -0.0128756 -0.0721636 0.004 300 0 
151 1 1 -0.0080114 -0.0382604 0.0108125 0 0 0 -2.60795e-05 -5.71422e-05 -0.00012303 -0.000219366 -0.00011501 8.30756e-05 0.0106967 -0.0247956 -0.0174216 0.004 300 0 
2 1 1 0.000445729 -0.0383083 0.0102721 0 0 0 7.41193e-05 -0.000175886 -0.000191385 -0.000176668 -4.34493e-05 -3.68897e-05 0.0013754 -0.000665566 0.0254418 0.004 300 0 
117 1 1 0.0249155 -0.0387318 0.0109214 0 0 0 0.000101447 -8.03679e-05 -0.000191336 6.11914e-05 -1.10653e-05 0.000123183 -0.030235 0.00472717 -0.0179681 0.004 300 0 
13 1 1 -0.0323458 -0.0327545 0.0115374 0 0 0 -4.28565e-05 -6.10466e-05 -4.64326e-05 5.62977e-05 6.29834e-05 5.86481e-05 -0.00775421 -0.00609309 0.0143465 0.004 300 0 
193 1 1 -0.00982392 -0.0305008 0.0107702 0 0 0 -0.000142947 -0.000210604 -0.000133537 9.29034e-05 5.7104e-05 2.3475e-05 -0.0129329 0.00537751 0.0663662 0.004 300 0 
47 1 1 -0.0013402 -0.0305467 0.0103851 0 0 0 0.000103415 -0.000216702 -0.000150744 -0.000116834 0.000132682 -3.53185e-05 0.0133151 0.0129026 -0.0380312 0.004 300 0 
153 1 1 0.00656559 -0.030026 0.0113669 0 0 0 0.000168587 -0.000220513 -0.00017578 -0.000262413 0.000180274 0.000112859 -0.0471895 0.0247484 0.0446054 0.004 300 0 
41 1 1 0.0148061 -0.0317928 0.0106525 0 0 0 0.0001451 -0.000152601 -0.00014376 -0.000125678 3.80607e-05 -5.76057e-05 -0.00865464 0.00704 -0.00287265 0.004 300 0 
163 1 1 0.0311471 -0.0339209 0.0111303 0 0 0 3.06791e-05 -4.32465e-05 -0.000205998 0.000115156 -5.7042e-05 -9.12973e-07 -0.0019134 -0.0195717 0.0221475 0.004 300 0 
214 1 1 -0.0375022 -0.0268253 0.0107154 0 0 0 -9.1649e-06 -0.000103093 -0.000114004 0.000157726 8.79194e-05 5.96444e-05 -0.0189013 0.0237832 -0.0243744 0.004 300 0 
210 1 1 0.0364642 -0.0281025 0.011115 0 0 0 -3.2656e-07 9.57118e-05 -0.000157284 -0.000103598 2.74715e-05 0.000147921 -0.00529373 -0.0262003 0.0263713 0.004 300 0 
108 1 1 -0.0260986 -0.0246392 0.0109246 0 0 0 5.68228e-05 -0.000136968 -5.66913e-05 0.000258921 0.000395104 0.000179665 0.0209418 -0.010882 -0.0830234 0.004 300 0 
40 1 1 -0.00550836 -0.0238702 0.0113322 0 0 0 -5.72002e-05 -0.000221651 -0.000219666 6.7496e-05 0.000262807 1.35868e-05 0.0363477 0.0440465 -0.0698703 0.004 300 0 
55 1 1 0.00236905 -0.0232844 0.0108302 0 0 0 2.38014e-05 -0.000349416 -0.000310392 -0.000151914 0.000705083 0.000281412 0.0170929 -0.00126028 0.0103999 0.004 300 0 
91 1 1 0.0120907 -0.0243838 0.0101871 0 0 0 0.000195621 -0.000172954 -0.000229088 -0.000301146 6.32128e-05 0.000269135 0.0172225 -0.0344381 -0.0102158 0.004 300 0 
112 1 1 0.0192811 -0.0205383 0.0105032 0 0 0 0.000167207 -0.000134384 -0.000263684 -6.51775e-05 -0.000139044 -2.65132e-05 0.0126499 -0.00679838 0.0167827 0.004 300 0 
178 1 1 0.0318556 -0.0225339 0.0144827 0 0 0 0.000263628 0.000145073 -0.000557544 7.64105e-06 1.98019e-05 0.000308843 0.0379228 -0.00412449 -0.0154901 0.004 300 0 
131 1 1 0.0407732 -0.0214746 0.0110488 0 0 0 7.21287e-05 0.000238385 -6.47554e-05 -0.00011437 -0.000153164 0.000271568 -0.0154194 -0.0450901 -0.0335884 0.004 300 0 
160 1 1 -0.0414735 -0.0199366 0.0108143 0 0 0 -1.04286e-05 -5.56185e-05 -0.000101538 0.000153975 9.34886e-05 6.88899e-05 0.00934863 -0.00747281 -0.00362215 0.004 300 0 
43 1 1 -0.0361115 -0.0150939 0.0142637 0 0 0 -1.15757e-05 -0.000238374 -0.000342875 0.000267077 8.12805e-05 0.000400722 0.0358411 0.0508517 -0.0409887 0.004 300 0 
4 1 1 -0.0270368 -0.0151165 0.0100723 0 0 0 5.84053e-05 -0.000153566 -2.19199e-05 0.000432381 0.000234893 0.000225591 0.000317682 -0.00129091 -0.0671265 0.004 300 0 
104 1 1 -0.0203041 -0.0192322 0.0111956 0 0 0 0.000136343 -0.000123773 -9.47712e-05 0.000325515 0.000239262 0.000411299 -0.00817466 0.0778783 0.0774333 0.004 300 0 
20 1 1 -0.0074585 -0.0162248 0.0110905 0 0 0 0.000174161 -1.09546e-05 -1.5595e-05 -1.57573e-05 0.000168704 0.000482876 0.0026307 0.0093394 0.0193751 0.004 300 0 
45 1 1 0.000826602 -0.016452 0.0146059 0 0 0 -5.72683e-05 -0.00022033 -0.000273302 3.89398e-05 0.000913743 0.000810022 -0.007276 -0.0455428 -0.00297578 0.004 300 0 
159 1 1 0.00795708 -0.0177033 0.0113533 0 0 0 3.94247e-05 -0.000214886 -0.000250069 -0.000144095 0.00024336 0.000395549 -0.00629786 0.0561987 0.00626537 0.004 300 0 
136 1 1 0.0347909 -0.0163441 0.0104676 0 0 0 0.000229214 0.000266924 -0.000181121 -1.57055e-05 1.76753e-05 5.68607e-05 0.0468484 -0.00745345 0.0331817 0.004 300 0 
177 1 1 -0.0443294 -0.0125253 0.010818 0 0 0 -5.11437e-06 2.14306e-05 -9.42342e-05 0.000119356 9.52404e-05 0.000185121 -0.00325599 0.0129421 0.00389843 0.004 300 0 
139 1 1 -0.0168227 -0.0121113 0.0110408 0 0 0 0.000166362 0.00011682 7.57686e-05 0.000370917 0.000668172 3.86252e-05 0.0510372 -0.0215266 -0.0417903 0.004 300 0 
211 1 1 -0.00209664 -0.0104171 0.0103083 0 0 0 8.0939e-05 -3.47702e-05 -4.36452e-05 -7.23331e-06 0.000520492 0.00070774 0.0465497 0.00885087 -0.0230983 0.004 300 0 
54 1 1 0.0149216 -0.0138961 0.010831 0 0 0 8.24536e-05 -0.000196196 -0.000208199 -3.70259e-05 -6.89287e-05 0.000104886 0.0600011 -0.0212217 -0.00276056 0.004 300 0 
84 1 1 0.0232727 -0.011802 0.0106579 0 0 0 0.000142434 -7.56575e-05 -0.00012981 -8.03143e-05 -0.000146266 -7.67484e-05 0.0582948 -0.0379748 0.008538 0.004 300 0 
180 1 1 0.043818 -0.0141051 0.0110436 0 0 0 1.49614e-05 0.00032099 -8.80283e-06 -0.000482734 -0.000365413 0.00012825 -0.0741517 0.0126561 -0.0249964 0.004 300 0 
103 1 1 0.0174476 -0.00636592 0.0105745 0 0 0 6.62419e-05 -9.30306e-05 -0.000239567 -0.000158498 -2.66271e-05 3.93215e-05 -0.0796632 -0.00577258 0.00626826 0.004 300 0 
156 1 1 0.0308888 -0.0094668 0.0106313 0 0 0 0.000257171 0.000135608 1.89038e-05 -0.000307886 -7.24639e-05 -0.000115652 0.0367406 0.053669 -0.00512314 0.004 300 0 
197 1 1 -0.0457821 -0.00470771 0.0107635 0 0 0 2.10221e-05 4.97139e-05 -7.909e-05 0.000114404 7.07497e-05 9.81266e-05 -0.00350063 0.06032 -0.00364445 0.004 300 0 
87 1 1 -0.0386047 -0.00379988 0.014143 0 0 0 -0.000162163 0.000310447 -0.000218631 -3.09916e-05 -0.000230683 0.000363184 -0.0803108 -0.107766 0.0336308 0.004 300 0 
130 1 1 -0.0313605 -0.00387079 0.0107761 0 0 0 0.000255096 4.15938e-05 -0.000147012 -4.74127e-05 0.000281556 0.000177969 0.0514723 0.0573005 -0.0794328 0.004 300 0 
604 1 1 -0.0224595 -0.000299685 0.0110767 0 0 0 0.000278269 2.52599e-06 -0.000178522 -0.000250113 0.000297949 0.000208589 0.0560129 -0.113054 -0.00574893 0.004 300 0 
146 1 1 -0.0155084 -0.00400737 0.0103894 0 0 0 0.000277728 0.000291735 0.000252757 -0.000119001 0.000920878 0.000749426 0.0349173 -0.0827509 0.0379834 0.004 300 0 
57 1 1 -0.00517565 -0.00310605 0.0111916 0 0 0 6.74313e-05 0.000196265 0.000334513 -0.000332699 -0.00028826 0.000579472 0.00513761 -0.0655834 -0.0301392 0.004 300 0 
493 1 1 0.0117077 -0.000869049 0.0103592 0 0 0 -5.51814e-05 -0.000243573 -7.03325e-05 -0.000623867 -0.000438845 0.000285165 0.107455 0.10856 0.0647637 0.004 300 0 
31 1 1 0.0250526 -0.00405486 0.0104563 0 0 0 8.80815e-05 1.74016e-05 0.000132598 8.64923e-05 -0.000174208 -0.000231642 -0.0164896 -0.086838 0.0198045 0.004 300 0 
588 1 1 0.0326032 -0.00174981 0.0105433 0 0 0 0.000109764 0.000222726 0.00016573 -0.000100156 -0.000414038 -0.000414381 0.0116175 0.0406574 0.0444845 0.004 300 0 
63 1 1 0.0459254 -0.00328093 0.0119228 0 0 0 3.10001e-05 7.24211e-05 -5.5452e-05 0.000275601 1.09482e-05 -0.000333687 -0.0507728 -0.00481525 -0.0339657 0.004 300 0 
107 1 1 -0.00849862 -0.0452736 0.0176781 0 0 0 -9.62852e-05 -6.48517e-06 -7.64897e-05 -0.000126628 -4.96352e-05 -0.000188643 -0.0158373 0.0767365 0.0102012 0.004 300 0 
222 1 1 -0.00141298 -0.041805 0.0171194 0 0 0 -2.84052e-05 -0.000175823 -0.000263433 -1.17294e-05 -0.000181345 -0.000239117 -0.000150809 -0.0265287 -0.0303711 0.004 300 0 
142 1 1 0.00616255 -0.0401437 0.0154177 0 0 0 7.40656e-05 -0.00011389 -0.000107627 -0.000172463 -3.07197e-05 -0.000135262 0.0229159 -0.00817319 0.011311 0.004 300 0 
172 1 1 0.0116048 -0.0446415 0.0189628 0 0 0 -4.00053e-05 -2.97024e-05 1.60086e-05 -4.26496e-05 0.000190143 2.79107e-05 0.016222 -0.0944399 0.00393415 0.004 300 0 
109 1 1 0.0203964 -0.0412921 0.0183354 0 0 0 0.000109438 -3.09381e-05 -0.000217381 -0.000159803 0.00014106 -4.46738e-05 -0.055814 0.0395219 -0.0339018 0.004 300 0 
150 1 1 -0.0273277 -0.037083 0.0158758 0 0 0 -3.46898e-05 -3.97858e-05 -4.24623e-05 6.36604e-06 5.42378e-05 2.80328e-05 0.00589665 0.017554 -0.0100456 0.004 300 0 
38 1 1 -0.019779 -0.0373726 0.0182801 0 0 0 -7.37893e-05 -0.000140769 -9.53281e-05 -1.01437e-05 0.000244129 6.93766e-05 -0.0302595 -0.010907 -0.0203098 0.004 300 0 
199 1 1 -0.0118535 -0.0370327 0.0176508 0 0 0 -6.54105e-05 -7.10849e-05 -0.000161769 -1.2074e-05 0.000226815 0.000147713 -0.0300779 0.0365192 0.0521601 0.004 300 0 
93 1 1 0.0137615 -0.0377735 0.0156808 0 0 0 7.58407e-05 -8.13072e-05 1.62307e-06 -0.000231526 0.000197867 9.27717e-05 -0.0284537 0.00578551 0.00554357 0.004 300 0 
64 1 1 0.027983 -0.0365253 0.0179478 0 0 0 -8.3917e-05 0.000140376 -0.000366713 -4.79794e-05 -0.000112566 -0.000103526 -0.0821046 -0.0491529 0.0315043 0.004 300 0 
22 1 1 -0.0327427 -0.0324228 0.0194579 0 0 0 3.35266e-05 -3.93781e-05 -6.89936e-05 0.000144652 0.000181623 9.21383e-05 -0.0121525 0.0190405 -0.0174003 0.004 300 0 
174 1 1 -0.0224335 -0.030211 0.0162622 0 0 0 9.17887e-05 -8.11181e-05 -0.000204267 0.000108423 0.000322127 7.13341e-05 0.00022334 0.0248713 -0.0240335 0.004 300 0 
32 1 1 -0.00428369 -0.034395 0.0166822 0 0 0 0.00012519 -0.000225476 -0.00014251 -0.000193045 3.62389e-05 -7.54053e-05 0.0216081 0.0432574 -0.0321925 0.004 300 0 
128 1 1 0.00347684 -0.0331395 0.0179964 0 0 0 2.27081e-05 -0.000125133 -6.72119e-05 -0.000402545 -4.04084e-05 -0.000138355 0.010127 -0.0658203 -0.0186877 0.004 300 0 
88 1 1 0.0113756 -0.0304769 0.0177088 0 0 0 1.92541e-05 -0.000131267 -0.000128652 -0.000238714 0.000160687 0.000252564 0.0264038 -0.0689956 -0.0313636 0.004 300 0 
137 1 1 0.0207609 -0.0338423 0.0156195 0 0 0 0.00034823 -7.44583e-05 -0.00031297 -0.000540015 -0.000135899 -0.000261705 0.0288091 -0.00480881 -0.0312187 0.004 300 0 
154 1 1 0.0339844 -0.0311402 0.0180558 0 0 0 -6.21122e-05 -4.45473e-05 -0.000181449 -2.54455e-05 -0.000224763 0.000289997 0.00729206 -0.0276534 0.0199439 0.004 300 0 
52 1 1 -0.0319915 -0.0252366 0.0161635 0 0 0 3.6547e-05 -7.9782e-05 -0.000169718 0.00028773 0.000426267 0.000185155 0.00152006 -0.00499398 0.0238233 0.004 300 0 
80 1 1 -0.00960297 -0.0265092 0.0175839 0 0 0 0.000141834 -0.000176079 -0.000201966 0.000136033 0.000268579 -0.000204768 -0.00733772 0.0752476 -0.0383484 0.004 300 0 
125 1 1 -0.00115957 -0.0267004 0.0173707 0 0 0 -0.000113683 -0.000264678 -0.000227048 -0.000232959 0.000394785 -0.00010828 -0.0116579 -0.0692465 0.0634717 0.004 300 0 
72 1 1 0.0179362 -0.0264351 0.0156296 0 0 0 0.000257075 -0.000186356 -0.000283974 -0.000478844 -0.000215009 -0.000146801 0.00377056 0.0159061 0.0478223 0.004 300 0 
34 1 1 0.0269532 -0.0287357 0.0154523 0 0 0 7.26387e-05 0.000158201 -0.000346959 5.28424e-05 -2.11752e-05 5.26489e-05 -0.0702762 -0.0040451 -0.0854967 0.004 300 0 
218 1 1 -0.0395975 -0.0234621 0.0176931 0 0 0 6.56206e-06 -0.000120075 -0.000148551 0.000120685 0.000147339 8.17027e-05 -0.0164901 0.0267105 -0.016017 0.004 300 0 
70 1 1 -0.0247189 -0.0230241 0.0185706 0 0 0 0.000232638 -9.18895e-05 -0.000168328 0.000305328 0.000268984 0.000125321 -0.0143594 0.0366263 0.00994412 0.004 300 0 
132 1 1 -0.0171329 -0.0242629 0.016473 0 0 0 0.000280257 -6.78464e-05 -0.000112434 0.00019378 0.000196277 0.00010484 0.000169707 -0.0746381 -0.0314457 0.004 300 0 
196 1 1 0.00717255 -0.0237834 0.0170757 0 0 0 -5.85825e-05 -8.83025e-05 -0.00050586 -0.000279982 0.000641927 0.000236866 -0.0946848 -0.0126142 0.0239867 0.004 300 0 
362 1 1 0.0243911 -0.0214403 0.0171142 0 0 0 0.000150234 0.000122947 -0.000530706 2.14534e-05 -5.55345e-05 -0.00012594 0.00973 0.0232693 0.0825496 0.004 300 0 
49 1 1 0.0387624 -0.0248043 0.0179796 0 0 0 -0.000100371 4.39172e-05 -0.000190897 2.68826e-05 -0.000513639 0.00038552 0.00873331 0.0440069 0.0181915 0.004 300 0 
173 1 1 -0.0431203 -0.0163106 0.0177148 0 0 0 6.60902e-05 -7.27993e-05 -0.000157747 0.000160756 6.55211e-05 0.000239203 -0.000143183 0.0296094 -0.0186266 0.004 300 0 
50 1 1 -0.029508 -0.0167646 0.0182815 0 0 0 0.000160463 -0.000240689 -0.000365509 0.000279943 0.000159292 0.000314532 -0.0787922 -0.0235225 0.0203456 0.004 300 0 
202 1 1 -0.0134628 -0.0172159 0.0161103 0 0 0 0.000282021 -6.59053e-05 -7.24004e-05 -7.02881e-05 4.43722e-05 0.000579018 -0.052225 -0.0205806 0.0593101 0.004 300 0 
86 1 1 -0.00524486 -0.0199243 0.0183779 0 0 0 8.18309e-05 -0.000177227 -0.000329167 0.000344056 0.000474932 0.000111354 0.00398413 0.0148109 0.0332381 0.004 300 0 
129 1 1 0.0138705 -0.0196314 0.0162887 0 0 0 -7.63505e-05 -5.32077e-05 -0.000400123 -2.91919e-05 0.00013422 0.000297128 -0.0611561 -0.0831903 0.0105323 0.004 300 0 
82 1 1 0.0291378 -0.0151458 0.0159342 0 0 0 0.000104889 7.73467e-05 -0.00021187 4.3761e-05 0.000212066 0.000168945 0.0334852 -0.048855 -0.0930896 0.004 300 0 
1 1 1 0.0424654 -0.0178092 0.0178761 0 0 0 -9.57349e-05 0.000155196 0.00014842 -0.00032354 -0.000194668 0.000215574 0.0961802 -0.0153231 -0.0035852 0.004 300 0 
168 1 1 -0.0224811 -0.0136309 0.0164134 0 0 0 0.000193016 -7.27563e-05 -6.41802e-05 0.00030024 0.000404486 -7.9134e-06 0.0176415 -0.00658499 0.0420976 0.004 300 0 
121 1 1 -0.00515713 -0.0120302 0.017454 0 0 0 0.000308491 0.000118642 -0.00036977 -0.000357319 0.0005541 0.000128418 -0.0676944 0.0596741 -0.056247 0.004 300 0 
28 1 1 0.00813669 -0.0139703 0.0183216 0 0 0 0.000449631 -0.000274898 -0.000403668 -0.000215721 0.000196255 -6.67071e-05 0.019951 -0.0564227 -0.148903 0.004 300 0 
42 1 1 0.0200557 -0.0148159 0.0172681 0 0 0 -1.44863e-05 -1.51855e-05 -0.00030018 -0.000114067 -0.00037544 -1.6879e-06 0.0277095 0.0654636 -0.0277934 0.004 300 0 
60 1 1 0.0376308 -0.0116477 0.0161661 0 0 0 8.81669e-05 4.02172e-05 0.000246521 -0.000151447 -0.000139006 -8.54929e-05 0.0595415 -0.0598149 -0.0454938 0.004 300 0 
135 1 1 -0.0452102 -0.00864332 0.0176854 0 0 0 0.000184637 5.34469e-05 -0.000115531 0.000186533 1.73688e-05 0.000180437 0.0046102 0.040397 -0.0242063 0.004 300 0 
81 1 1 -0.0376103 -0.00944739 0.0199511 0 0 0 0.000204716 -0.00016976 -0.000355705 0.000362191 -0.000324457 0.000225815 -0.00074398 -0.0324052 -0.0155273 0.004 300 0 
190 1 1 -0.0303514 -0.00906325 0.0166811 0 0 0 0.000256491 -0.000465252 -0.000486927 -1.14761e-05 -7.56552e-06 0.000429538 0.0795624 0.0923386 -0.0884485 0.004 300 0 
7 1 1 -0.0204519 -0.00598459 0.0162507 0 0 0 0.000385736 3.90641e-05 -1.49464e-05 -0.000489676 0.000625865 0.000234583 0.0221637 0.132024 -0.0464085 0.004 300 0 
145 1 1 -0.0119918 -0.00832492 0.0160597 0 0 0 0.00049241 0.000273062 0.000166409 0.000160462 0.000392734 -0.000169857 0.0475033 0.0839239 0.00519083 0.004 300 0 
186 1 1 0.00213818 -0.00892605 0.0168577 0 0 0 0.000633484 -0.000486824 -0.000546606 -0.000416865 0.000662266 0.000678773 0.119836 -0.0953328 0.110974 0.004 300 0 
56 1 1 0.0144253 -0.00917405 0.0173909 0 0 0 0.00023887 0.000162235 9.11761e-05 -0.000302283 0.000107949 0.000313771 0.0111461 0.0603064 -0.0189426 0.004 300 0 
191 1 1 0.0221431 -0.00719374 0.0170882 0 0 0 0.000109838 4.13178e-06 4.586e-05 0.000216123 -0.00054812 0.000238946 0.0706144 0.036809 -0.00736521 0.004 300 0 
208 1 1 0.0315239 -0.00611313 0.0178061 0 0 0 4.77863e-05 -0.000109666 0.000207488 -0.000237454 -0.000188747 0.000290017 0.0098329 -0.121415 0.017469 0.004 300 0 
92 1 1 0.0451151 -0.00920292 0.0172079 0 0 0 2.62178e-05 8.17556e-05 0.000200479 -0.00011435 0.000368506 1.52445e-05 -0.0880474 0.0765799 0.0220899 0.004 300 0 
192 1 1 -0.0460778 -0.000752991 0.0176249 0 0 0 8.03224e-05 0.000110444 2.76822e-05 -2.11215e-05 -0.000284716 0.000111232 -0.00938059 -0.0398821 0.0435874 0.004 300 0 
462 1 1 -0.0271593 -0.00181457 0.0172856 0 0 0 5.18786e-05 -0.000534044 -0.00059984 -0.000626737 -0.000110996 0.000207404 -0.1399 -0.0229515 0.129311 0.004 300 0 
450 1 1 -0.0128203 -0.000776523 0.0182521 0 0 0 0.000330956 0.000914146 0.000412148 -0.000289937 0.000200738 0.000847832 -0.087949 -0.14787 0.0425422 0.004 300 0 
111 1 1 -0.0056306 -0.004089 0.0190495 0 0 0 -0.00013935 0.000726447 0.000479838 -0.00139673 0.00014327 0.000107147 -0.0217426 0.110728 -0.316289 0.004 300 0 
622 1 1 0.00100793 -0.00113193 0.0157692 0 0 0 -0.000247399 -0.000324142 0.000746885 -0.000907822 0.000998961 0.00162494 0.284917 0.0664066 0.166194 0.004 300 0 