ITEM: TIMESTEP
2400
ITEM: NUMBER OF ATOMS
890
ITEM: BOX BOUNDS mm mm mm
-0.05 0.05
-0.05 0.05
0 0.15
ITEM: ATOMS id type type x y z ix iy iz vx vy vz fx fy fz omegax omegay omegaz radius f_Temp[0] f_heatFlux[0] 
59 1 1 -0.00640147 -0.045199 0.00412478 0 0 0 0.0965004 -0.112448 0.0307675 0 0 -0.0210391 26.4872 7.51171 22.5356 0.004 300 0 
116 1 1 0.00260276 -0.0419578 0.00388676 0 0 0 -0.0182633 -0.0145415 0.110812 0.00103627 -0.000520965 0.216904 6.68017 -1.29272 -1.04445 0.004 300 0 
158 1 1 0.0113251 -0.0429401 0.00376638 0 0 0 0.290492 0.0241666 -0.0232148 0.124329 0.079786 0.717906 7.28342 16.8817 -15.4766 0.004 300 0 
15 1 1 -0.0125997 -0.0393122 0.00402068 0 0 0 -0.00431391 -0.0734099 -0.00328345 -0.0136955 0.167461 -0.272345 5.40253 -0.967994 -5.8842 0.004 300 0 
98 1 1 0.0220001 -0.0403031 0.00411328 0 0 0 -0.104026 0.109214 0.0914715 0 0 -0.0210391 25.3162 8.76207 -4.97434 0.004 300 0 
118 1 1 -0.0332996 -0.0310502 0.00399292 0 0 0 -0.120433 -0.230018 0.0713947 -0.0107931 -0.204094 -0.0521967 9.44252 -3.04677 22.7185 0.004 300 0 
30 1 1 -0.0211382 -0.0331887 0.00366202 0 0 0 -0.066659 7.20843e-06 0.102996 -0.034588 -0.158424 0.712981 -0.971427 -15.8113 -14.3158 0.004 300 0 
215 1 1 -0.003553 -0.0333783 0.00385827 0 0 0 -0.147991 0.10874 0.0230217 0.124641 -0.10737 0.0394905 7.07259 -8.94514 -1.76003 0.004 300 0 
74 1 1 0.0061953 -0.0338314 0.00391956 0 0 0 -0.0124983 -0.0990151 -0.119928 -0.081477 0.00126064 -0.193723 13.6914 9.15485 -2.08107 0.004 300 0 
23 1 1 0.0157699 -0.0347436 0.00395685 0 0 0 0.11492 -0.329209 -0.0496175 -0.0283112 -0.0336685 -0.0640414 -3.69159 17.279 -0.874207 0.004 300 0 
195 1 1 -0.00680285 -0.0262452 0.00375587 0 0 0 -0.0175912 0.248334 -0.13765 -0.128032 0.282402 1.00545 -11.7073 -7.36153 3.90063 0.004 300 0 
77 1 1 0.00140414 -0.0268887 0.0037662 0 0 0 -0.120103 0.114943 0.0673313 -0.399896 -0.447466 0.024649 3.22302 7.02752 -7.32893 0.004 300 0 
24 1 1 0.0112782 -0.0277572 0.00394087 0 0 0 0.18983 -0.290705 -0.024479 0.282404 -0.00581834 -0.126692 -3.72362 1.57915 12.5468 0.004 300 0 
113 1 1 0.0209701 -0.028398 0.00392799 0 0 0 -0.0162141 -0.26527 -0.0167609 -0.122808 -0.0459284 0.0874652 7.12751 1.28321 18.7252 0.004 300 0 
161 1 1 0.0288768 -0.0298882 0.00382478 0 0 0 -0.105997 -0.0157368 0.0641203 0.13444 0.0749895 0.429201 9.24589 -6.89157 2.52459 0.004 300 0 
183 1 1 0.0365997 -0.0280883 0.00426519 0 0 0 0.089888 0.066587 -0.116085 -0.170055 0.108723 -0.157453 24.8613 8.79954 25.1677 0.004 300 0 
162 1 1 -0.0404239 -0.0220813 0.00542324 0 0 0 -0.0625372 0.144055 0.0720669 -0.125108 0.0737333 0.0154532 5.5643 -7.04536 2.78461 0.004 300 0 
8 1 1 -0.0327259 -0.0231783 0.00416005 0 0 0 -0.0762831 -0.239432 0.0447598 0.189789 0.00245548 -0.460281 4.48081 9.36041 -25.4272 0.004 300 0 
12 1 1 -0.0247644 -0.0250633 0.00387195 0 0 0 0.0151478 -0.124486 -0.158704 -0.139158 0.0908211 0.352479 -2.86057 -10.3547 -7.34267 0.004 300 0 
148 1 1 -0.014713 -0.0230313 0.00385989 0 0 0 -0.341428 -0.0811367 -0.0677867 -0.208722 -0.209433 -0.102406 12.2304 -11.2681 0.890146 0.004 300 0 
76 1 1 0.0255673 -0.021977 0.003744 0 0 0 0.0682282 -0.170645 0.000657727 0.0322721 -0.0541077 0.616527 14.5702 14.6182 -7.25088 0.004 300 0 
144 1 1 -0.00124899 -0.0169693 0.00389992 0 0 0 0.0762645 0.0432835 -0.296402 -0.092868 -0.0879095 -0.0535121 10.8141 0.317023 3.51485 0.004 300 0 
95 1 1 0.0173684 -0.0211302 0.00397612 0 0 0 -0.0864859 -0.15121 0.0224329 0.00085906 0.000640917 0.000396907 14.6862 9.45012 5.15488 0.004 300 0 
100 1 1 0.0341236 -0.017168 0.00393563 0 0 0 0.0383711 -0.116753 -0.0702726 -0.0372666 -0.239007 -0.398572 10.3739 13.5542 -3.39102 0.004 300 0 
102 1 1 -0.037131 -0.0148249 0.00424014 0 0 0 0.0838827 0.158817 0.0380068 0 0 -0.0210391 6.66446 2.66905 0.855182 0.004 300 0 
213 1 1 -0.00999705 -0.0155091 0.00414868 0 0 0 -0.0189816 -0.171738 -0.0233932 -0.0113429 -0.0461273 -0.0485237 -3.72087 -13.0717 18.5452 0.004 300 0 
26 1 1 0.00569342 -0.0117735 0.00377535 0 0 0 0.00559192 0.0777206 -0.0085995 -0.132902 0.207245 0.353068 0.521072 -15.6008 4.40229 0.004 300 0 
194 1 1 0.0261133 -0.0134793 0.0039333 0 0 0 0.213051 0.0711552 -0.195588 -0.00469863 -0.0199285 0.229718 10.5455 -1.3595 -12.3227 0.004 300 0 
219 1 1 0.0451002 -0.00940163 0.00470273 0 0 0 0.0344293 0.114255 0.00995145 0.799695 0.0224268 0.0429902 -6.95627 -5.60213 -8.92426 0.004 300 0 
65 1 1 -0.0447478 -0.0111446 0.00426672 0 0 0 -0.098894 -0.380728 0.141203 0.422896 0.135461 -0.0360719 15.0017 -20.113 -3.66984 0.004 300 0 
140 1 1 -0.0371952 -0.00580248 0.00422764 0 0 0 -0.114266 0.11671 -0.165245 0 0 -0.0210391 7.58586 -10.2233 6.92238 0.004 300 0 
124 1 1 -0.0292189 -0.00837426 0.00388874 0 0 0 -0.0732039 -0.129715 0.0235818 -0.00609043 0.0135256 0.275632 -2.22567 -34.372 17.2652 0.004 300 0 
39 1 1 -0.0168308 -0.00933387 0.00382175 0 0 0 -0.0312304 0.00909237 -0.0265429 -0.0711477 0.0684271 0.251882 2.31534 -3.31374 3.07771 0.004 300 0 
171 1 1 -0.00175742 -0.00609603 0.00385264 0 0 0 -0.1725 0.147232 0.0599192 -0.0632094 -0.0597169 0.14693 -7.77779 -14.694 0.391878 0.004 300 0 
21 1 1 0.0225599 -0.00632592 0.00429558 0 0 0 0.236591 -0.0196894 -0.0477973 0.105168 -0.11849 -0.207918 1.60693 5.74774 -7.51059 0.004 300 0 
37 1 1 0.0374337 -0.00956703 0.00399265 0 0 0 0.00406241 0.0797461 0.0236456 -0.954876 0.00249278 -0.0905792 -2.97246 2.66249 17.4837 0.004 300 0 
636 1 1 -0.044971 -0.00283735 0.0042056 0 0 0 -0.303363 -0.207539 -0.0508978 0.0116993 0.104177 -0.204429 -8.18575 -17.7784 11.0621 0.004 300 0 
207 1 1 -0.0193976 -0.00177889 0.00382936 0 0 0 -0.036407 0.0449307 0.000520675 0.0574428 -0.0283321 -0.0821449 -6.41554 -6.43808 10.537 0.004 300 0 
69 1 1 -0.00942801 -0.00271864 0.00382617 0 0 0 -0.221907 -0.258224 0.0940879 -0.0890971 -0.125601 -0.0795068 3.57782 -16.061 6.80154 0.004 300 0 
221 1 1 0.00863588 -0.00414566 0.00390781 0 0 0 0.0807009 -0.0562447 -0.1733 -0.0320984 0.0544446 -0.0879363 7.96461 5.12646 22.5105 0.004 300 0 
17 1 1 0.0304218 -0.00420935 0.00388281 0 0 0 0.30188 0.0969033 -0.036018 0.0597862 0.0402976 0.133353 9.24002 24.2016 7.65786 0.004 300 0 
155 1 1 0.037987 -0.00143956 0.00394442 0 0 0 0.354581 0.110912 0.0728215 0.0547259 0.0865281 -0.111693 -8.97154 14.203 -6.24635 0.004 300 0 
665 1 1 0.0461211 -0.00125099 0.00406127 0 0 0 0.102443 0.267363 0.139874 -0.496661 -0.22613 -0.127314 -4.26524 49.8046 4.86581 0.004 300 0 
170 1 1 -0.0207726 -0.0411782 0.00514067 0 0 0 0.169518 -0.0770427 -0.283715 0.14883 0.315267 -0.00618716 5.59347 -14.6917 4.0535 0.004 300 0 
169 1 1 -0.0277725 -0.0369059 0.00578296 0 0 0 -0.145158 0.0570994 -0.233314 0.267429 0.4551 0.0756022 -15.3099 12.2831 4.62153 0.004 300 0 
188 1 1 -0.013122 -0.0313793 0.00430588 0 0 0 -0.126527 0.0646863 -0.409243 -0.000856733 0.0174004 -0.0195897 -16.7481 -5.75315 1.87871 0.004 300 0 
198 1 1 0.024147 -0.0338421 0.00876206 0 0 0 -0.0399503 -0.202333 -0.0491181 0.155177 -0.0425261 -0.0554574 -18.647 -3.83259 21.8795 0.004 300 0 
163 1 1 0.0318264 -0.0332944 0.0104295 0 0 0 0.150815 0.0665005 0.0944047 0.201721 -0.0365908 -0.125377 -24.656 -5.62804 14.631 0.004 300 0 
101 1 1 -0.0192945 -0.0276954 0.00891919 0 0 0 0.045478 0.0366015 -0.0251777 0.233306 0.00683574 0.336178 2.92655 20.3244 13.2024 0.004 300 0 
40 1 1 -0.00156473 -0.0224019 0.00956884 0 0 0 -0.00263845 -0.00830571 -0.273729 -0.0298167 0.192837 -0.02838 7.96128 -14.5135 -25.2502 0.004 300 0 
75 1 1 0.0315851 -0.0240958 0.00879137 0 0 0 -0.0814994 0.0489362 0.069384 -0.134215 0.0914623 -0.0253364 -27.5661 8.199 -9.90187 0.004 300 0 
167 1 1 0.0409594 -0.0207152 0.00560853 0 0 0 0.0527824 0.129601 -0.366105 0.256565 -0.144522 0.0544812 -20.5875 -5.27239 -3.11876 0.004 300 0 
177 1 1 -0.04346 -0.0148934 0.0111971 0 0 0 -0.0381032 0.016092 0.336364 0.00198381 -0.00706045 -0.00934221 -28.4225 -14.046 28.693 0.004 300 0 
53 1 1 -0.0284396 -0.0164933 0.00397421 0 0 0 -0.12576 -0.0615691 0.0297192 -0.0556411 -0.0115239 -0.16 -16.5278 -3.85007 22.1017 0.004 300 0 
220 1 1 -0.0198086 -0.0167732 0.00410117 0 0 0 -0.130396 0.176204 0.0940624 -0.00918081 0.340943 -0.829476 -16.749 -11.7475 -11.7429 0.004 300 0 
33 1 1 -0.0116726 -0.0202484 0.0104481 0 0 0 -0.0672534 0.0381219 -0.234163 0.250386 0.253039 0.449196 20.7299 17.4207 -8.07955 0.004 300 0 
5 1 1 0.0103108 -0.0173236 0.00681702 0 0 0 0.0779752 0.0252408 -0.185096 0.229929 -0.272902 0.150624 -4.74432 4.65845 11.7197 0.004 300 0 
211 1 1 0.000111671 -0.0114677 0.0093061 0 0 0 -0.227481 -0.0214005 -0.147366 0.0287744 0.0652224 -0.130726 7.0118 13.0347 -4.87397 0.004 300 0 
96 1 1 0.0194036 -0.0146389 0.00820593 0 0 0 0.0763378 0.00617154 -0.247157 -0.222044 0.0131227 -0.0666423 -30.8521 -2.24682 -4.32442 0.004 300 0 
62 1 1 -0.0227072 -0.00693218 0.00866469 0 0 0 -0.0325387 -0.00619581 -0.10354 -0.16117 -0.361085 0.232223 -4.05887 6.49543 -1.99598 0.004 300 0 
19 1 1 -0.00825263 -0.00904953 0.00844313 0 0 0 -0.0972186 -0.203586 0.119968 0.0241948 -0.0584286 0.0814412 -4.99647 -15.4317 1.82295 0.004 300 0 
200 1 1 0.014822 -0.00863439 0.00588172 0 0 0 0.0977957 0.0509685 -0.175952 0.0712644 0.00306466 -0.0358612 25.3859 6.57114 -12.2268 0.004 300 0 
119 1 1 -0.0313948 -0.00162738 0.00841919 0 0 0 -0.199987 0.0902822 -0.00609314 0.0186486 -0.0443233 0.0117356 0.959046 48.882 -32.0703 0.004 300 0 
83 1 1 -0.000946804 -0.0461368 0.0102839 0 0 0 0.268151 0.064248 -0.0772026 -0.554378 0.0272603 0.0700212 -29.4253 1.71474 -2.36143 0.004 300 0 
223 1 1 0.00678291 -0.045681 0.00955638 0 0 0 0.206794 -0.144116 -0.0495391 0.56778 0.337874 -0.110155 -15.1879 -17.4535 -2.99951 0.004 300 0 
185 1 1 -0.0122953 -0.044283 0.0100885 0 0 0 0.0111546 -0.140021 0.0521185 0.0429447 -0.1718 -0.20724 -10.8513 -9.57918 24.1142 0.004 300 0 
217 1 1 0.0145159 -0.0437818 0.0116077 0 0 0 0.108223 0.104399 0.0543601 -0.142115 -0.172794 -0.247938 -2.8648 3.46548 -1.62821 0.004 300 0 
117 1 1 0.0217771 -0.0405579 0.012171 0 0 0 -0.0230049 -0.0587705 0.194139 0.00722824 -0.0847012 0.0354673 -4.23543 -6.01861 5.73994 0.004 300 0 
152 1 1 -0.00381429 -0.0388828 0.00944577 0 0 0 0.0208261 0.00691892 -0.100997 -0.137418 0.00444027 0.00439096 18.8697 11.1699 34.042 0.004 300 0 
120 1 1 0.0102825 -0.0374783 0.00955652 0 0 0 -0.0708045 -0.081033 -0.13062 0.132271 -0.189035 -0.0402926 -11.9887 -22.5828 2.86916 0.004 300 0 
58 1 1 -0.0192163 -0.0355897 0.0108514 0 0 0 -0.075313 -0.239494 -0.0232294 0.109528 -0.123533 0.420391 20.6976 25.8864 -48.5718 0.004 300 0 
89 1 1 -0.0104611 -0.0359958 0.0125347 0 0 0 -0.14135 -0.238324 -0.052662 -0.408817 -0.0503888 -0.619906 -5.1583 19.8199 -10.8818 0.004 300 0 
47 1 1 0.00136858 -0.0321236 0.00990392 0 0 0 0.235664 0.0754646 -0.0254782 -0.00331002 0.145788 0.0947464 4.97462 8.6547 -3.38915 0.004 300 0 
41 1 1 0.0168911 -0.0325054 0.0114348 0 0 0 0.0477491 -0.129806 0.125619 -0.240214 -0.0477857 0.00740848 -15.185 -11.0228 3.90431 0.004 300 0 
214 1 1 -0.0354945 -0.0273687 0.0107632 0 0 0 0.438216 -0.196264 -0.217523 -0.108351 -0.0519667 -0.013923 -28.6738 19.6756 -4.96341 0.004 300 0 
9 1 1 -0.0278437 -0.0294964 0.00980924 0 0 0 -0.155706 -0.192443 -0.168203 -0.139577 -0.590709 -1.33606 -21.4441 6.16422 4.94726 0.004 300 0 
193 1 1 -0.00939335 -0.0284023 0.0109267 0 0 0 0.0439542 -0.285479 -0.216181 0.145291 0.362876 -0.133546 13.3274 -6.47012 1.44759 0.004 300 0 
46 1 1 -0.0319694 -0.0202603 0.0114233 0 0 0 0.0494396 -0.0695477 -0.446876 0.0678165 0.283239 -0.720778 -21.144 -22.4166 2.50896 0.004 300 0 
179 1 1 0.00640439 -0.0246296 0.00923373 0 0 0 -0.0276098 0.0414064 -0.322866 0.331577 0.444406 0.204143 -29.8007 -9.98572 1.55762 0.004 300 0 
91 1 1 0.0144183 -0.0245981 0.010866 0 0 0 -0.0869654 0.0260456 -0.110198 -0.0722193 0.518132 -0.936877 1.02094 -10.5651 -9.64877 0.004 300 0 
104 1 1 -0.0196224 -0.0201189 0.0110775 0 0 0 -0.0168302 0.0468892 -0.179518 -0.0393718 -0.0959622 0.831569 -4.23105 20.9393 9.49411 0.004 300 0 
20 1 1 -0.00502078 -0.0161641 0.0134654 0 0 0 -0.149764 0.0635849 -0.0726826 0 0 -0.0210391 -6.02138 24.6844 7.28219 0.004 300 0 
10 1 1 0.00422919 -0.0176412 0.0125161 0 0 0 0.159293 0.147944 -0.234249 0 0 -0.0210391 10.9968 6.1067 0.62621 0.004 300 0 
11 1 1 0.0260413 -0.0181187 0.0105182 0 0 0 -0.010131 -0.0498468 -0.10561 0.278556 0.14683 0.412744 -13.3081 -8.01814 18.9399 0.004 300 0 
131 1 1 0.0365788 -0.018478 0.0121483 0 0 0 0.287613 -0.0994852 0.0425331 0.0668747 0.035645 -0.0617641 19.067 10.9462 -25.4398 0.004 300 0 
4 1 1 -0.0252412 -0.0142127 0.0108388 0 0 0 -0.299761 0.143516 -0.0300147 -0.0668587 0.182409 -0.348801 3.96345 4.82138 -10.905 0.004 300 0 
139 1 1 -0.0153036 -0.0128471 0.0106583 0 0 0 -0.035448 -0.104024 0.00902761 0.0483252 -0.136058 0.258712 10.4452 -6.23415 -7.34239 0.004 300 0 
187 1 1 0.00864622 -0.0107036 0.011053 0 0 0 0.0636595 0.0590325 -0.176261 0.0416956 0.0228226 0.0631047 5.14452 29.2843 9.13856 0.004 300 0 
136 1 1 0.0319029 -0.0123974 0.00964222 0 0 0 0.142934 -0.0743235 0.0308379 0.586958 0.0746501 -0.801762 12.7549 -16.4237 -0.176442 0.004 300 0 
197 1 1 -0.045111 -0.00650586 0.011188 0 0 0 0.00677356 0.0871566 0.139472 -0.0116993 -0.104177 0.162351 -13.7376 14.0866 0.111666 0.004 300 0 
71 1 1 -0.0332709 -0.00897931 0.0108567 0 0 0 -0.140221 -0.013706 0.126989 0.0516591 0.149739 -0.155912 -4.40501 3.4087 12.4883 0.004 300 0 
57 1 1 -0.00259898 -0.00386936 0.0131744 0 0 0 -0.075061 0.119498 -0.0580296 0.135773 -0.127489 0.0466724 14.7478 -19.7254 -3.52301 0.004 300 0 
373 1 1 0.0061276 -0.00924142 0.0717859 0 0 0 0 0 -0.888477 0 0 -0.0210391 0 0 0 0.004 300 0 
307 1 1 0.00629951 -0.0045374 0.0641109 0 0 0 0 0 -0.888477 0 0 -0.0210391 0 0 0 0.004 300 0 
146 1 1 -0.0147338 -0.00443167 0.00971147 0 0 0 0.0572208 -0.0543594 0.0590383 0.0334216 -0.0143468 -0.0535002 -11.6417 16.5778 0.863355 0.004 300 0 
18 1 1 0.0053494 -0.00278787 0.0108796 0 0 0 -0.0628639 -0.116658 -0.142951 -0.236159 0.0977663 0.199212 -32.5465 -5.62619 -17.938 0.004 300 0 
31 1 1 0.0194118 -0.00197473 0.0100466 0 0 0 0.334767 0.165335 -0.0362488 -0.00116016 0.228434 0.0721595 -23.9667 6.13811 13.6392 0.004 300 0 
156 1 1 0.0274665 -0.00615367 0.0109257 0 0 0 -0.0643128 -0.129786 -0.196814 -0.267317 0.396911 -0.0010571 -6.78609 -25.1272 0.389343 0.004 300 0 
157 1 1 0.0352421 -0.00500765 0.0104241 0 0 0 0.176144 0.0640592 0.0475088 -0.106392 0.226421 -0.035941 16.314 -7.67991 7.5293 0.004 300 0 
63 1 1 0.0462085 -0.00167261 0.0120925 0 0 0 -0.211925 0.109831 0.240898 -0.593672 -0.593886 -0.34961 -7.0431 30.4481 -11.1847 0.004 300 0 
150 1 1 -0.0237228 -0.039545 0.0161657 0 0 0 -0.150019 0.145286 0.0706677 0.158097 0.251346 -0.0344911 -27.0219 7.12092 30.6687 0.004 300 0 
107 1 1 -0.0124186 -0.0445839 0.0179031 0 0 0 0.0920757 -0.0432305 0.0827545 0.171388 1.06343 0.319081 -11.2029 -11.2898 1.24909 0.004 300 0 
222 1 1 -0.00311502 -0.0453485 0.0182637 0 0 0 -0.121864 0.216444 0.010374 0 0 -0.0210391 -20.2759 -0.89457 -2.32029 0.004 300 0 
2 1 1 0.00312427 -0.0398482 0.0131879 0 0 0 -0.274864 0.0222425 -0.460325 -0.0235174 0.358843 0.340986 5.645 14.1025 5.80553 0.004 300 0 
109 1 1 0.0164668 -0.0397667 0.0180851 0 0 0 -0.0195287 -0.22159 0.0659448 0.0708937 0.204314 0.290744 18.5919 -14.6693 8.51094 0.004 300 0 
13 1 1 -0.0300294 -0.0343886 0.0166176 0 0 0 -0.495203 -0.11912 -0.0350461 0 0 -0.0210391 -30.5039 0.541013 -1.22228 0.004 300 0 
6 1 1 -0.015603 -0.0299504 0.0155933 0 0 0 0.307648 -0.128213 0.0390858 -0.0526704 -0.219036 -0.0205876 -9.74056 10.8373 8.25299 0.004 300 0 
151 1 1 -0.00233094 -0.0348941 0.0162926 0 0 0 -0.0811895 -0.125196 -0.294411 0.27671 0.139042 -0.0864978 -8.15339 4.38618 18.498 0.004 300 0 
153 1 1 0.00845597 -0.0309458 0.0135165 0 0 0 0.05251 -0.0446649 -0.207387 -0.219139 -0.0969226 -0.0154266 -3.30831 25.9873 5.4517 0.004 300 0 
125 1 1 -0.00260873 -0.0267053 0.0159901 0 0 0 -0.0992337 -0.229656 -0.347945 -0.0737049 -0.24298 0.353754 6.20357 -11.8826 -10.5702 0.004 300 0 
48 1 1 0.0267226 -0.0283646 0.0139415 0 0 0 0.286738 -0.0419991 -0.240224 -0.147934 0.159358 0.105699 -13.7931 -1.41588 -17.8612 0.004 300 0 
210 1 1 0.0365274 -0.0267114 0.0164481 0 0 0 -0.0203883 -0.178491 -0.308049 0 0 -0.0210391 9.51126 -13.0136 -5.40885 0.004 300 0 
55 1 1 0.00569202 -0.0244374 0.0169898 0 0 0 -0.196455 0.0127204 -0.366742 0.0658951 0.142214 0.0949182 -1.2272 -12.5712 -11.5231 0.004 300 0 
112 1 1 0.0214323 -0.0227023 0.0160417 0 0 0 0.040759 0.253362 -0.549417 -0.185481 0.0785449 -0.176565 39.1546 -21.359 -7.00967 0.004 300 0 
178 1 1 0.0304225 -0.021461 0.0161577 0 0 0 0.156699 0.0218677 0.086623 0.046437 0.0074511 0.196461 26.2121 -14.7302 -20.8342 0.004 300 0 
202 1 1 -0.0123441 -0.0161295 0.0172928 0 0 0 0.150619 -0.219113 -0.207656 -0.54221 -0.415574 -0.30765 -6.48894 16.6782 10.0178 0.004 300 0 
54 1 1 0.0142784 -0.0159295 0.0144171 0 0 0 -0.127435 0.042371 -0.280775 0 0 -0.0210391 9.59302 -8.26248 0.434077 0.004 300 0 
43 1 1 -0.0355715 -0.0147244 0.0157979 0 0 0 -0.453683 0.0281573 -0.305591 -0.501674 -0.278857 -0.753429 20.8201 -5.26199 -7.02531 0.004 300 0 
186 1 1 -0.000238168 -0.0105122 0.0169762 0 0 0 0.020516 0.215826 -0.120912 -0.157236 0.313214 0.296069 -7.1577 7.25863 9.67716 0.004 300 0 
84 1 1 0.0217355 -0.0102027 0.0145662 0 0 0 0.14664 -0.125866 -0.0895122 -0.159307 -0.104755 0.0683944 -3.62982 -5.82994 -9.38439 0.004 300 0 
82 1 1 0.028758 -0.0136227 0.0165209 0 0 0 -0.0514887 0.116505 -0.165362 -0.525467 -0.382998 1.042 -32.7171 12.6248 -12.309 0.004 300 0 
180 1 1 0.0395056 -0.0109461 0.0132242 0 0 0 0.405429 -0.0838724 -0.446662 0.212081 -0.29557 0.139562 -28.8765 14.1221 14.3682 0.004 300 0 
135 1 1 -0.0415087 -0.00819849 0.018218 0 0 0 -0.0848855 -0.116622 0.198899 0 0 -0.0210391 25.6199 3.96334 12.9011 0.004 300 0 
130 1 1 -0.0268979 -0.00467997 0.0149648 0 0 0 -0.0360662 0.246751 0.0285639 0.0523426 0.0271661 0.0167436 -2.15873 12.0152 -8.96967 0.004 300 0 
7 1 1 -0.0188851 -0.00782517 0.0157559 0 0 0 0.166253 0.311088 -0.315904 0 0 -0.0210391 24.148 10.1744 -8.82017 0.004 300 0 
145 1 1 -0.00984993 -0.00597276 0.0158634 0 0 0 -0.0646075 0.0335783 -0.0111378 0 0 -0.0210391 47.7549 9.43846 12.928 0.004 300 0 
103 1 1 0.0146182 -0.00654304 0.0143153 0 0 0 0.0942405 -0.0285475 -0.15433 0.112931 -0.249889 -0.0495167 -1.45602 5.66017 -7.21257 0.004 300 0 
434 1 1 -0.0125268 -0.0364229 0.0723893 0 0 0 0 0 -0.888477 0 0 -0.0210391 0 0 0 0.004 300 0 
106 1 1 0.00903424 -0.00227247 0.0178437 0 0 0 0.136093 0.00989211 -0.138505 -0.0907725 0.119129 0.222973 -9.12944 33.0943 -9.59307 0.004 300 0 
208 1 1 0.0240159 -0.0020538 0.0166429 0 0 0 0.374987 0.109336 0.0664103 -0.0612049 0.0237985 0.179626 5.65484 -3.28888 -23.352 0.004 300 0 
105 1 1 -0.0167265 -0.0380287 0.0200614 0 0 0 -0.0297569 0.209484 -0.156106 0 0 -0.0210391 -0.76459 2.54512 -6.191 0.004 300 0 
199 1 1 -0.00860764 -0.0379444 0.0198421 0 0 0 -0.103681 0.249753 -0.498685 -0.253427 -0.263933 0.289648 -4.05767 -4.92896 -0.488948 0.004 300 0 
93 1 1 0.0094708 -0.0355216 0.020037 0 0 0 -0.161848 0.0953482 -0.0307454 0 0 -0.0210391 -15.6459 46.3981 -10.51 0.004 300 0 
64 1 1 0.023337 -0.0352228 0.0179883 0 0 0 0.0148046 -0.199282 -0.565367 0 0 -0.0210391 4.28025 -4.51214 1.06397 0.004 300 0 
108 1 1 -0.026523 -0.0261238 0.0165086 0 0 0 0.0054752 0.165548 -0.43924 0.234439 0.568144 1.13776 -32.0428 2.32673 -11.1188 0.004 300 0 
88 1 1 0.0146009 -0.0282316 0.0176347 0 0 0 -0.185183 0.0741608 -0.0816149 0.103994 -0.18257 0.997852 -1.89903 -1.68113 -6.03348 0.004 300 0 
160 1 1 -0.0396384 -0.023791 0.0176594 0 0 0 -0.0178287 0.0113514 -0.198247 0.799121 0.482096 0.025577 -16.0403 -10.3633 7.19737 0.004 300 0 
132 1 1 -0.0188301 -0.0233025 0.0183383 0 0 0 -0.0994408 -0.137093 -0.283395 0.0450323 -0.0393017 0.103666 14.211 4.10655 -8.23307 0.004 300 0 
80 1 1 -0.0104627 -0.0238832 0.0173588 0 0 0 0.0669029 -0.20438 -0.123011 0.0720356 0.361343 -0.325744 0.640022 23.321 -5.89259 0.004 300 0 
34 1 1 0.0262407 -0.0252925 0.0216853 0 0 0 -0.194557 -0.318457 -0.378849 0.106424 -0.134112 0.26209 7.70408 -12.8721 -4.41369 0.004 300 0 
168 1 1 -0.0228551 -0.0165324 0.0179084 0 0 0 -0.0630337 -0.184553 -0.350228 0.405788 -0.0530627 -0.46565 15.8463 27.2032 -12.2032 0.004 300 0 
45 1 1 0.00120883 -0.0173229 0.0205138 0 0 0 -0.0711291 0.0148833 -0.237184 0.0531815 -0.147829 0.0738642 8.81765 -3.4583 -7.2304 0.004 300 0 
129 1 1 0.0103793 -0.0202702 0.0218737 0 0 0 0.00772479 -0.0121696 -0.268706 0.0234838 0.00530841 -0.00694037 8.15543 2.51317 -26.7034 0.004 300 0 
1 1 1 0.0381838 -0.018738 0.0217959 0 0 0 0.392217 -0.0236563 0.0493248 0 0 -0.0210391 19.0679 11.8241 -8.7513 0.004 300 0 
29 1 1 -0.0173401 -0.0122589 0.0222432 0 0 0 0.0908724 0.141726 -0.104854 0 0 -0.0210391 -7.73575 -22.2413 -11.0151 0.004 300 0 
159 1 1 0.00749026 -0.0130543 0.0185558 0 0 0 0.025905 -0.199569 -0.226359 0.00895862 -0.0734052 -0.244368 3.34077 -7.93255 -11.0603 0.004 300 0 
42 1 1 0.0187007 -0.0142223 0.0209489 0 0 0 -0.185835 -0.157598 -0.129917 -0.135086 -0.1066 -0.137768 30.9279 -9.22773 -7.37254 0.004 300 0 
190 1 1 -0.0250217 -0.0097133 0.0208478 0 0 0 0.00973115 0.0112312 -0.193938 -0.230287 0.596219 0.265373 -11.3283 -29.424 -4.7135 0.004 300 0 
121 1 1 -0.00704126 -0.0117164 0.0208302 0 0 0 -0.0368292 -0.133853 -0.208232 0.479124 0.455581 0.281084 5.17275 -7.80303 24.0014 0.004 300 0 
78 1 1 0.00371711 -0.00621497 0.0222584 0 0 0 0.100278 0.108242 -0.0579101 0.34055 0.120065 -0.225936 -1.53234 -48.9222 -23.8264 0.004 300 0 
60 1 1 0.0321191 -0.00689394 0.0189283 0 0 0 0.341267 0.0973008 -0.726047 -0.335799 -0.142885 -0.169951 2.68975 11.0399 -9.01359 0.004 300 0 
87 1 1 -0.034417 -0.00340552 0.0171323 0 0 0 -0.0744521 -0.00996527 -0.287465 -0.084084 0.0220258 -0.0498886 3.53698 -6.53239 -0.139343 0.004 300 0 
164 1 1 0.0454265 -0.00230568 0.0201805 0 0 0 0.434328 0.164446 0.40111 0 0 -0.0210391 -3.58812 -6.12308 13.9265 0.004 300 0 
142 1 1 0.00159521 -0.0394807 0.0218636 0 0 0 0.292493 0.135908 -0.104453 -0.191807 0.0364807 -0.320734 -13.9307 21.1529 -1.18707 0.004 300 0 
137 1 1 0.0181279 -0.0311284 0.0240236 0 0 0 0.219631 -0.180407 -0.311676 0.0547048 -0.0882839 0.0867367 2.164 -1.39283 -2.36865 0.004 300 0 
154 1 1 0.0271216 -0.032858 0.0247719 0 0 0 0.274631 -0.336391 -0.557268 0 0 -0.0210391 10.1118 -13.8903 -2.95932 0.004 300 0 
85 1 1 -0.0114033 -0.0292343 0.0229339 0 0 0 0.0440298 -0.330273 -0.258408 0.0333887 -0.337857 0.338661 4.42171 7.20494 4.94028 0.004 300 0 
32 1 1 -0.00278851 -0.030567 0.0229447 0 0 0 -0.360412 -0.0707365 -0.21196 0.000250241 -0.00152789 0.0405615 10.9859 19.6255 7.05515 0.004 300 0 
49 1 1 0.0363576 -0.0260182 0.0250464 0 0 0 0.22703 -0.0405118 -0.520958 0 0 -0.0210391 3.49923 11.9694 0.813424 0.004 300 0 
52 1 1 -0.0321795 -0.0211375 0.0190191 0 0 0 -0.171505 -0.26916 -0.246881 -0.0845305 0.00742685 1.11616 22.8213 -10.3704 9.63803 0.004 300 0 
204 1 1 -0.0147077 -0.0216686 0.0249708 0 0 0 -0.0377911 -0.220783 -0.202458 -0.000693148 -0.000207491 -0.0221584 2.73805 1.49409 13.2429 0.004 300 0 
86 1 1 -0.00423087 -0.0225512 0.0225585 0 0 0 -0.177052 0.108055 -0.307297 -0.157063 -0.222221 -0.270238 -6.08292 -2.70123 -7.33282 0.004 300 0 
196 1 1 0.0033888 -0.0238634 0.0244036 0 0 0 -0.204746 -0.0337813 -0.355545 -0.0637827 -0.0622258 0.635345 6.07515 1.33076 5.41616 0.004 300 0 
72 1 1 0.0180677 -0.0219875 0.0232626 0 0 0 0.0904772 -0.224107 -0.150616 -0.0298184 0.0550905 -0.377503 -13.3024 -0.134112 5.46257 0.004 300 0 
173 1 1 -0.0406596 -0.0161721 0.0222271 0 0 0 -0.56647 0.112298 -0.147031 0 0 -0.0210391 -19.6417 -20.1646 -5.94008 0.004 300 0 
97 1 1 0.0303968 -0.0166416 0.0237563 0 0 0 0.281617 -0.045589 -0.613796 0 0 -0.0210391 -2.555 -1.10262 5.51223 0.004 300 0 
50 1 1 -0.0316798 -0.0138597 0.0223734 0 0 0 -0.0684804 -0.0863887 -0.449491 0.469651 0.113807 0.857821 11.6164 -4.12975 -15.3923 0.004 300 0 
147 1 1 -0.010186 -0.0153951 0.0270982 0 0 0 -0.150927 -0.308121 -0.274723 -0.0441947 -0.0472293 0.0704748 -21.6921 -23.5942 -8.93178 0.004 300 0 
92 1 1 0.0389645 -0.0105558 0.0229023 0 0 0 0.161585 0.153051 -0.22143 -0.00272926 -0.128241 -0.192045 -0.550762 -16.862 4.7104 0.004 300 0 
56 1 1 0.0122373 -0.0080808 0.0222441 0 0 0 0.116183 -0.114273 -0.0671351 0.061254 0.144534 0.157581 -4.11135 10.1432 1.16657 0.004 300 0 
44 1 1 0.0240086 -0.0100891 0.02504 0 0 0 0.246228 -0.121877 -0.427599 0.135086 0.1066 0.09569 13.9646 21.7713 -20.5188 0.004 300 0 
192 1 1 -0.0391295 -0.00266577 0.0235055 0 0 0 -0.229448 0.134566 -0.605619 -0.0497521 0.00554201 0.0521504 11.5318 1.1714 8.13756 0.004 300 0 
206 1 1 -0.0150432 -0.00410077 0.0234196 0 0 0 -0.287054 -0.158151 -0.205458 0 0 -0.0210391 7.70033 11.6273 -3.69243 0.004 300 0 
111 1 1 -0.00680433 -0.00410528 0.0235574 0 0 0 -0.0771053 -0.100039 -0.701042 -0.00505751 -0.00674757 -0.0188734 -9.24767 -12.0521 -0.642369 0.004 300 0 
191 1 1 0.0191148 -0.00428062 0.0224606 0 0 0 0.200087 -0.0197718 -0.0543911 0.173481 0.112698 0.0351543 -0.397209 -39.8963 16.5622 0.004 300 0 
133 1 1 0.037575 -0.00229679 0.0220328 0 0 0 0.157231 0.399564 -0.587558 0.41545 0.314468 0.197296 10.3619 -3.40804 16.0543 0.004 300 0 
127 1 1 -0.00709892 -0.0387256 0.0273955 0 0 0 0.00832823 -0.0321744 -0.497763 0.133586 -0.0411169 0.718696 13.833 6.42876 -1.51662 0.004 300 0 
114 1 1 0.0134754 -0.0369322 0.0270165 0 0 0 0.18974 -0.309783 -0.464666 -0.00676061 -0.299207 -0.216896 -14.8474 10.0454 7.19984 0.004 300 0 
38 1 1 -0.0169242 -0.032353 0.0277373 0 0 0 -0.224768 -0.0598736 -0.843675 -0.0856387 -0.0702811 0.106787 4.32931 -3.54403 1.59301 0.004 300 0 
22 1 1 -0.0314653 -0.0261267 0.0263937 0 0 0 -0.0744686 -0.0950119 -0.636225 0 0 -0.0210391 3.29945 4.09266 3.71751 0.004 300 0 
174 1 1 -0.0234818 -0.0292477 0.0231321 0 0 0 0.119374 -0.0338802 -0.674583 0.0481738 -0.0477966 0.0939839 12.8789 -3.21864 -1.3497 0.004 300 0 
70 1 1 -0.0245648 -0.0209434 0.0240057 0 0 0 -0.425056 -0.175831 -0.327662 -0.147195 -0.496258 0.652185 -0.0651309 -23.7005 -4.97369 0.004 300 0 
36 1 1 -0.00831102 -0.0244006 0.0289566 0 0 0 -0.415999 -0.135494 -0.398468 -0.209451 -0.101655 0.362813 0.195432 -16.3585 -2.0703 0.004 300 0 
209 1 1 0.0184388 -0.0233852 0.0310062 0 0 0 -0.166589 -0.216754 -0.326552 -0.537452 0.138328 -0.146447 -3.45287 27.6091 10.327 0.004 300 0 
28 1 1 0.00639433 -0.0149768 0.026474 0 0 0 0.143062 0.313589 -0.414165 0 0 -0.0210391 -16.7646 9.71441 -7.41409 0.004 300 0 
90 1 1 -0.0236262 -0.0057198 0.027883 0 0 0 0.0197346 0.0335524 -0.183718 0 0 -0.0210391 -3.52945 -1.36825 -4.21331 0.004 300 0 
189 1 1 -0.000814808 -0.00625962 0.0286153 0 0 0 -0.240119 0.0995041 -0.216287 -0.256263 0.00263903 0.378182 5.68104 -6.64896 4.80918 0.004 300 0 
123 1 1 0.0296332 -0.00395606 0.0266299 0 0 0 0.0182698 0.193483 -0.464901 0.0536521 0.0130762 -0.0914111 -3.59022 -11.4752 6.17294 0.004 300 0 
172 1 1 0.00575853 -0.0406755 0.0285054 0 0 0 -0.136511 -0.0975242 -0.769647 0.191807 -0.0364807 0.278656 1.11387 -3.58175 -2.49704 0.004 300 0 
110 1 1 -0.0244866 -0.0322721 0.0329083 0 0 0 -0.020998 -0.116849 -0.583018 0 0 -0.0210391 -2.15816 -7.8891 -1.91921 0.004 300 0 
128 1 1 0.0034526 -0.031747 0.0280792 0 0 0 0.395141 -0.296149 -0.577185 -0.00630822 0.00769589 -0.125315 8.01755 14.1461 -3.25597 0.004 300 0 
35 1 1 0.0212345 -0.0317591 0.0313269 0 0 0 -0.155702 -0.026148 -0.593672 0.0695456 -0.0169042 0.124575 -6.51567 -7.74488 -4.04412 0.004 300 0 
149 1 1 0.0133183 -0.0302576 0.0310936 0 0 0 -0.1389 0.00416886 -0.596519 0.00676061 0.299207 0.174817 2.34963 -9.38518 5.25615 0.004 300 0 
25 1 1 0.00770318 -0.0218171 0.0309317 0 0 0 0.252586 0.0608665 -0.368065 0 0 -0.0210391 2.19641 15.7123 -5.6107 0.004 300 0 
3 1 1 0.0293411 -0.0225452 0.0291278 0 0 0 0.112817 0.0156033 -0.334077 -0.0268624 -0.0210018 -0.0331351 -8.93182 10.2924 -3.04257 0.004 300 0 
218 1 1 -0.036247 -0.0190156 0.031471 0 0 0 0 0 -0.888477 0 0 -0.0210391 0 0 0 0.004 300 0 
51 1 1 -0.0279523 -0.0199018 0.0315707 0 0 0 0 0 -0.888477 0 0 -0.0210391 0 0 0 0.004 300 0 
16 1 1 0.0148554 -0.0153529 0.0281999 0 0 0 0 0 -0.888477 0 0 -0.0210391 0 0 0 0.004 300 0 
99 1 1 0.0353376 -0.0177786 0.0314265 0 0 0 0.000156566 0.000122408 -0.888407 0.0268624 0.0210018 -0.00894316 -0.00427161 0.00491185 0.000958001 0.004 300 0 
81 1 1 -0.0338032 -0.0109944 0.0299782 0 0 0 -0.146375 0.120236 -0.459118 0 0 -0.0210391 -11.0606 7.32086 -5.8261 0.004 300 0 
14 1 1 -0.0182523 -0.0148894 0.0297868 0 0 0 -0.186721 -0.259453 -0.129575 0.50988 -0.332971 -0.4445 4.91318 -28.1669 -11.411 0.004 300 0 
68 1 1 -0.00251287 -0.0147438 0.0299102 0 0 0 0.131708 -0.124202 -0.570986 0 0 -0.0210391 11.9054 19.9174 11.8124 0.004 300 0 
205 1 1 0.0279698 -0.0138986 0.0310128 0 0 0 0.065836 -0.144998 -0.229433 0 0 -0.0210391 7.80856 5.25129 12.8073 0.004 300 0 
66 1 1 -0.010416 -0.00753886 0.0298273 0 0 0 -0.0847471 -0.147006 -0.464789 0 0 -0.0210391 -17.0082 1.65466 6.98298 0.004 300 0 
27 1 1 0.00564915 -0.00521586 0.0333956 0 0 0 0.0363105 0.115489 -0.514213 0 0 -0.0210391 5.08284 6.82018 -10.4454 0.004 300 0 
212 1 1 0.0172479 -0.00578929 0.0300662 0 0 0 -0.149637 -0.0778967 -0.225795 0.0926161 0.0041508 -0.508681 -16.8314 -12.3764 -4.32186 0.004 300 0 
67 1 1 0.0387961 -0.00603196 0.0294187 0 0 0 0.0628051 -0.140522 -0.450757 0.00272926 0.128241 0.149967 14.7054 2.47243 -0.870981 0.004 300 0 
181 1 1 -0.0419243 -0.0049769 0.0320703 0 0 0 -0.157484 -0.0342019 -0.52999 0 0 -0.0210391 8.04756 8.4708 4.34613 0.004 300 0 
126 1 1 -0.0165732 -0.0351367 0.0352218 0 0 0 -0.0114224 -0.113735 -0.59825 -0.00406336 0.0147875 -0.0622909 -2.28792 8.80917 3.3624 0.004 300 0 
143 1 1 -0.00410418 -0.0378383 0.0352762 0 0 0 0.101109 0.0223556 -0.556885 0 0 -0.0210391 -6.60952 8.74362 1.4267 0.004 300 0 
61 1 1 0.0107614 -0.0387269 0.0348845 0 0 0 0 0 -0.888477 0 0 -0.0210391 0 0 0 0.004 300 0 
216 1 1 0.00358241 -0.0321396 0.0359728 0 0 0 0.0457611 -0.0769591 -0.360955 0.00630822 -0.00769589 0.0832367 -12.6337 -5.20506 0.650882 0.004 300 0 
134 1 1 -0.0198442 -0.0254957 0.0342252 0 0 0 -0.0101601 0.010206 -0.871204 -0.154674 -0.110391 -0.0376841 -0.689802 -0.137536 0.993854 0.004 300 0 