ITEM: TIMESTEP
8000
ITEM: NUMBER OF ATOMS
890
ITEM: BOX BOUNDS mm mm mm
-0.05 0.05
-0.05 0.05
0 0.15
ITEM: ATOMS id type type x y z ix iy iz vx vy vz fx fy fz omegax omegay omegaz radius f_Temp[0] f_heatFlux[0] 
59 1 1 -0.000749901 -0.046098 0.00395769 0 0 0 0.00150491 -0.00013692 -0.00111642 -0.00227357 0.00121122 0.00352313 -0.348348 -0.342753 -0.458978 0.004 300 0 
170 1 1 -0.0173779 -0.0426289 0.00397058 0 0 0 0.00170932 0.000782223 0.00037413 -0.00186018 -0.00280095 0.00152754 -0.139718 0.266366 -0.460924 0.004 300 0 
15 1 1 -0.00977882 -0.0449537 0.0039431 0 0 0 0.00118471 0.000320856 -0.000263673 0.000511982 -0.00361392 0.00224812 -0.129904 -0.126253 0.245304 0.004 300 0 
116 1 1 0.00648046 -0.0428674 0.0039548 0 0 0 -0.000342364 0.0035797 -0.000961016 -0.00256723 -0.00726608 0.00268702 -0.990151 -0.124307 0.183407 0.004 300 0 
158 1 1 0.0143634 -0.0437683 0.00387457 0 0 0 0.000738278 0.00168533 -0.000898296 -0.00222607 -0.000838227 0.000822896 -0.445719 0.168657 -0.579849 0.004 300 0 
98 1 1 0.0216927 -0.0406479 0.00393121 0 0 0 -0.000282321 0.00186854 -0.00109554 -0.00143244 -0.000664545 -0.00127067 -0.450174 -0.0064848 -0.237706 0.004 300 0 
169 1 1 -0.0244614 -0.0390591 0.00390962 0 0 0 0.00261959 0.000801529 0.00311985 -0.00133802 -0.000753856 -0.000179814 0.27694 0.570486 0.444469 0.004 300 0 
89 1 1 -0.0118223 -0.0369247 0.00395419 0 0 0 -0.00023961 0.000869707 0.0016769 -0.00427667 -0.00572226 0.00392863 -0.332194 -0.0901484 -2.7314 0.004 300 0 
152 1 1 -0.00418231 -0.0390071 0.00392479 0 0 0 -0.00257911 -0.00280464 0.000410228 -0.00287621 0.000737356 0.00391252 0.958181 -0.234577 1.78529 0.004 300 0 
23 1 1 0.0153656 -0.0358882 0.00390882 0 0 0 -0.000805385 0.00197808 -0.00490936 -0.00222465 -0.00307519 -0.00138171 -0.587323 -0.0766024 0.312988 0.004 300 0 
118 1 1 -0.0307743 -0.0342282 0.00394281 0 0 0 0.000329569 -0.000542712 0.00489516 -0.00170081 -0.00164972 -0.00359506 -0.503909 -0.0451825 0.446641 0.004 300 0 
30 1 1 -0.0188968 -0.0333759 0.00395002 0 0 0 0.00119289 0.00475988 0.0031284 -0.00531899 0.00124809 -0.00711981 0.00714586 0.988059 1.45556 0.004 300 0 
215 1 1 -0.00608903 -0.0313321 0.00390101 0 0 0 -0.00108609 -0.00100126 0.00142743 -0.0046018 -0.000130536 0.000739537 -0.367566 0.423952 -2.19652 0.004 300 0 
74 1 1 0.00182588 -0.0337782 0.00391071 0 0 0 -0.000485325 -0.00311107 0.00187149 -0.00569738 -0.00113045 -0.00086316 0.47369 0.0902152 -2.57654 0.004 300 0 
24 1 1 0.00919189 -0.0308492 0.00392679 0 0 0 -0.00334544 0.00319613 -0.00246071 -1.74384e-05 -0.00221209 -0.000620221 -0.787834 -0.392183 1.84146 0.004 300 0 
198 1 1 0.025816 -0.0338425 0.00396426 0 0 0 0.00946904 -0.00375697 -0.00106656 -0.0037665 0.000580259 0.00116104 0.532115 -0.233622 4.77216 0.004 300 0 
161 1 1 0.033471 -0.0316659 0.00391898 0 0 0 0.00416798 0.00246581 -0.000948187 -0.00300395 -0.00705212 -0.0016058 -1.01228 0.826896 -1.51744 0.004 300 0 
8 1 1 -0.0323451 -0.0264347 0.00398351 0 0 0 0.00334661 -0.000734813 0.000940952 -0.00208269 -0.00337965 -0.0019478 -0.622612 -0.546539 -1.29652 0.004 300 0 
12 1 1 -0.024482 -0.0277277 0.0038628 0 0 0 -0.000249611 -0.00108516 0.00276309 0.0084849 -0.00605971 -0.00484215 -0.34849 -0.603351 0.630364 0.004 300 0 
188 1 1 -0.0132094 -0.0277723 0.00396167 0 0 0 0.000581656 0.00268614 -0.000690102 -0.00525412 0.00181722 0.00217064 -1.06353 0.192638 0.634014 0.004 300 0 
77 1 1 -0.000193121 -0.0260674 0.0039111 0 0 0 -0.00333092 -0.000577386 -0.00188654 0.00061878 -0.000874322 0.00486697 0.00655518 -0.674895 2.6189 0.004 300 0 
113 1 1 0.016594 -0.02804 0.00386925 0 0 0 -0.00639999 0.00484178 -0.000430492 0.000121434 -0.00241891 0.000150963 -0.88616 -1.39734 -1.37678 0.004 300 0 
183 1 1 0.0384112 -0.0254349 0.00393318 0 0 0 -0.000319897 0.00195435 -0.00151579 0.000240976 -0.00313196 0.000704823 -0.452167 -0.274554 -0.505785 0.004 300 0 
162 1 1 -0.0396689 -0.0233582 0.00388289 0 0 0 0.00664626 -0.0084023 0.00190907 -0.00158106 -0.00818283 -0.00329253 0.638999 1.0952 2.05465 0.004 300 0 
148 1 1 -0.0188135 -0.0220889 0.00393952 0 0 0 -0.00129063 0.00250964 0.00208906 -0.00103232 0.00261687 -0.00594492 -0.376431 -0.281464 -1.18787 0.004 300 0 
195 1 1 -0.0076275 -0.0219603 0.00394176 0 0 0 0.0111707 0.000528561 -0.000321081 0.00094272 0.000958797 0.00824136 -0.447473 0.0841436 -1.62065 0.004 300 0 
179 1 1 0.00721623 -0.0231515 0.00393516 0 0 0 -0.00525511 0.00347068 -0.00356632 0.000931243 -0.00315329 0.000226563 0.211492 -0.668642 -1.31797 0.004 300 0 
95 1 1 0.0148221 -0.0203529 0.0039306 0 0 0 -0.00439922 0.00610428 -0.00134226 0.00230062 0.00290341 0.00247824 0.395073 -0.329281 0.871685 0.004 300 0 
76 1 1 0.0230527 -0.0232659 0.00397462 0 0 0 -0.00205372 0.00367751 -0.00161678 -0.0035604 -0.00469706 -0.00676843 -0.557971 0.00732801 -0.416381 0.004 300 0 
100 1 1 0.0325616 -0.0200967 0.00390153 0 0 0 0.00489273 0.00605067 -0.00184555 0.00107159 -0.00283965 0.00303085 -1.61731 1.49728 -1.10809 0.004 300 0 
65 1 1 -0.0431074 -0.0162294 0.00392883 0 0 0 0.00212807 -0.00866092 0.000325466 0.000703853 -0.00608059 -0.00699757 0.308982 -0.647298 -1.13133 0.004 300 0 
102 1 1 -0.0352403 -0.0152042 0.0039452 0 0 0 0.0024583 -0.00612426 -0.000619074 4.83697e-05 -0.0029181 -0.00403849 1.55041 0.878308 1.45618 0.004 300 0 
53 1 1 -0.0273189 -0.0202656 0.00395197 0 0 0 0.0204726 -0.0133496 0.00264581 -0.00399517 0.00911739 -0.00283777 3.08387 4.06328 1.31608 0.004 300 0 
213 1 1 -0.0132796 -0.0163357 0.00397862 0 0 0 0.00740018 -0.000728171 -0.00137971 0.00442078 -0.0058555 0.00685867 0.0790762 0.845755 1.73512 0.004 300 0 
5 1 1 0.00874065 -0.0153388 0.00390261 0 0 0 -0.00177917 0.00466724 -0.00196281 0.00326854 -0.00192189 0.000542777 -0.481802 -0.0961035 -0.794745 0.004 300 0 
96 1 1 0.0210923 -0.0155239 0.00393273 0 0 0 0.00348734 -0.000239625 -0.000261942 0.00205462 0.00290953 0.010076 0.321284 0.615902 -3.37546 0.004 300 0 
167 1 1 0.0421665 -0.0184336 0.00392597 0 0 0 0.00280625 0.00269158 -0.000840155 -0.00140489 -0.000164697 0.00567892 0.851088 0.629979 -0.201702 0.004 300 0 
124 1 1 -0.028796 -0.0105779 0.00393298 0 0 0 5.5209e-05 -0.000964971 -0.00229346 -0.00331724 0.0014543 -0.00127084 -0.0419642 0.295055 -0.0627963 0.004 300 0 
220 1 1 -0.0217053 -0.0146532 0.00398266 0 0 0 -0.00130853 0.00567153 -0.00159985 -0.00294969 0.00430928 0.00354231 0.575053 0.115475 3.06282 0.004 300 0 
144 1 1 -0.00551481 -0.0138756 0.00391037 0 0 0 0.000187627 0.00341909 -0.00297924 0.0047186 -0.000317712 -0.00173747 0.0896004 1.55845 1.34585 0.004 300 0 
26 1 1 0.00250947 -0.0105392 0.00391751 0 0 0 0.00122824 0.00756351 -0.000983773 0.000124633 -0.00351182 0.00127436 0.0120569 1.02859 -0.125692 0.004 300 0 
194 1 1 0.0286806 -0.0131627 0.00393481 0 0 0 0.0057962 0.00429073 -0.000725789 0.00215309 0.00286017 0.00327556 -0.156318 2.18645 1.3187 0.004 300 0 
37 1 1 0.0366229 -0.0122658 0.00395181 0 0 0 0.00622667 0.00532822 -0.00372885 -0.000415098 0.00227901 0.00178028 -1.06906 2.12937 0.444389 0.004 300 0 
219 1 1 0.0447069 -0.010933 0.00390777 0 0 0 -0.00128425 0.00503329 -0.00133582 -0.003938 -0.000793633 0.00440356 -1.62688 -0.457001 1.21168 0.004 300 0 
636 1 1 -0.0452153 -0.00859765 0.0039238 0 0 0 0.00509015 -0.00565343 0.000227915 -0.00188303 -0.00510614 -0.00856601 0.655144 1.47937 -0.0238611 0.004 300 0 
39 1 1 -0.0162104 -0.00892884 0.00388988 0 0 0 0.00327341 0.00164525 -3.39541e-05 0.000665958 -0.00312763 0.00368153 -0.845683 0.906987 -0.554951 0.004 300 0 
171 1 1 -0.00400245 -0.00607172 0.00390897 0 0 0 0.000328822 0.00642916 0.00161523 0.00371312 0.000826476 -0.000842952 0.194143 9.46447e-05 0.32327 0.004 300 0 
200 1 1 0.0145022 -0.00988827 0.00393217 0 0 0 0.00249939 -0.000504835 -0.000156282 0.00649191 0.000159658 0.00774921 0.632517 0.512315 -1.0268 0.004 300 0 
21 1 1 0.022128 -0.00761969 0.00391766 0 0 0 -0.000389162 0.00131608 0.00258517 -0.000716352 0.00152131 0.019743 -0.0693805 -0.312792 1.47594 0.004 300 0 
17 1 1 0.0298041 -0.00527795 0.00394536 0 0 0 -0.00191503 0.00462506 -0.00170371 -0.00259589 0.00433263 0.00604943 -0.837827 -0.324006 -0.937896 0.004 300 0 
477 1 1 -0.0446075 -0.000676322 0.00397086 0 0 0 0.00194434 -0.00174702 -6.88415e-05 0.00121241 -0.00355399 -0.00286902 -0.640428 0.21454 0.376626 0.004 300 0 
140 1 1 -0.0353068 -0.00360772 0.00385152 0 0 0 -0.000749275 -0.00265176 0.00184591 0.00342322 -0.00517489 -0.00137876 0.472854 -0.107566 -0.446986 0.004 300 0 
119 1 1 -0.0274104 -0.00276521 0.00397528 0 0 0 -0.00199096 -0.00128282 0.000453845 0.0031978 0.00155933 -0.00154546 -0.0618287 0.808569 0.598373 0.004 300 0 
207 1 1 -0.0195215 -0.00175828 0.00389598 0 0 0 -0.00166172 -0.00113515 -0.00183784 0.00513531 -0.00183559 -0.000421189 0.0951157 -0.541117 1.42568 0.004 300 0 
69 1 1 -0.0111311 -0.00260045 0.00391271 0 0 0 -0.00507763 -0.00465367 -0.00136291 0.0041293 -0.0019016 0.00168319 1.34296 -1.40627 2.9406 0.004 300 0 
221 1 1 0.00875443 -0.00437139 0.00393627 0 0 0 -0.00393841 -0.00194479 -0.00491471 0.00294482 0.00731804 0.00182591 0.327824 -0.863812 1.76184 0.004 300 0 
457 1 1 0.0163597 -0.00195211 0.00394015 0 0 0 -0.00311285 8.60451e-05 -2.8193e-05 0.00793138 -0.00120674 0.00598936 -0.494874 -1.07319 -1.76311 0.004 300 0 
155 1 1 0.0378937 -0.00242582 0.00393745 0 0 0 -0.000188299 0.0031201 -0.00167382 -0.00529504 -3.87411e-05 0.00654031 -0.44171 0.266892 -1.07562 0.004 300 0 
665 1 1 0.0459233 -0.00314478 0.00393642 0 0 0 -0.0011956 0.00497002 -0.00322533 -0.00274012 -0.000332789 0.00466243 -0.0365494 -0.534879 -1.43365 0.004 300 0 
120 1 1 0.00920933 -0.0371568 0.00874654 0 0 0 -0.000158455 0.00305396 -0.00396034 0.000738825 -0.00505481 -0.000815789 0.590854 0.715231 -0.688684 0.004 300 0 
9 1 1 -0.0247157 -0.0333819 0.00938258 0 0 0 0.000142851 0.00079534 0.00532691 0.00403036 -0.00281724 -0.00191354 -0.146448 0.554019 -0.397234 0.004 300 0 
101 1 1 -0.0189018 -0.0277255 0.00954453 0 0 0 0.00426589 0.00372622 0.00379208 -0.00137292 0.0019693 -0.00237741 0.138901 2.99851 0.246747 0.004 300 0 
48 1 1 0.0221697 -0.0291745 0.00927725 0 0 0 -0.00202037 -0.00525639 -0.00854613 -0.00821398 0.00691958 0.00393557 -0.00622721 3.43872 -2.35309 0.004 300 0 
75 1 1 0.0293734 -0.0261896 0.00787706 0 0 0 -0.00289515 0.000552038 -0.0105053 -0.00461214 -0.00353465 -0.0063392 0.0695273 -2.85593 3.0958 0.004 300 0 
46 1 1 -0.0330367 -0.0204515 0.0094707 0 0 0 0.0115801 -0.00754477 -0.00922081 -0.0043492 -0.0107682 -0.0143686 -5.3243 -0.915341 -2.49668 0.004 300 0 
33 1 1 -0.0131255 -0.0222547 0.00971193 0 0 0 0.00148163 0.00479822 -0.00696104 0.00363656 0.00103786 0.00278033 0.43784 -0.484702 0.348855 0.004 300 0 
10 1 1 0.00101995 -0.0182708 0.00486705 0 0 0 -0.00129067 0.00523969 -0.0120654 -0.000892728 -0.00374957 -0.00252327 2.13969 -2.07828 -0.632447 0.004 300 0 
11 1 1 0.02693 -0.0187649 0.00933145 0 0 0 -0.00389891 0.00199653 -0.0101462 0.00590612 0.00532801 -0.000933588 -0.547514 0.661817 -2.78742 0.004 300 0 
71 1 1 -0.0373795 -0.00929682 0.00886016 0 0 0 0.00486925 -0.00700199 0.00211888 0.00063432 -0.00678579 0.00153455 0.138346 0.373688 2.17321 0.004 300 0 
62 1 1 -0.0227778 -0.00768453 0.00824027 0 0 0 0.00259075 -0.00472368 -0.00591877 -0.00156688 0.00446709 0.00104269 0.894741 -0.697972 1.70023 0.004 300 0 
19 1 1 -0.00979422 -0.00898572 0.00849971 0 0 0 0.00257373 -0.00438578 -0.00438966 -0.00408245 0.000639653 0.00517576 3.30582 0.0675669 0.0605557 0.004 300 0 
187 1 1 0.00810995 -0.00985297 0.00968761 0 0 0 0.00203208 0.00602984 -0.00262112 -0.00301185 -0.0120396 -0.0018332 -0.529795 -0.401945 1.05256 0.004 300 0 
157 1 1 0.039484 -0.00760808 0.00974503 0 0 0 -0.00371498 0.00451566 0.000457233 -0.00275784 0.000852329 0.00452999 -0.718766 -0.467434 -0.671656 0.004 300 0 
18 1 1 0.00227098 -0.00412782 0.00851899 0 0 0 -0.00144282 0.00632001 0.0029356 -0.00219936 -0.00131402 0.00231293 0.628861 -1.53709 0.792887 0.004 300 0 
185 1 1 -0.0053239 -0.0457265 0.0104581 0 0 0 8.39445e-05 0.00114928 3.0129e-05 0.00103673 -0.00207849 0.00177359 0.038922 0.151857 0.278346 0.004 300 0 
83 1 1 0.00256876 -0.0459589 0.0112229 0 0 0 0.000102774 0.00223549 -0.00189835 0.000489539 0.00216584 0.00199592 -0.602498 -0.0343501 0.269779 0.004 300 0 
58 1 1 -0.0218393 -0.0405815 0.0112675 0 0 0 0.00219015 -0.00186657 0.00225959 0.00130962 -0.00540226 -0.00189459 0.447814 -0.374205 -0.856553 0.004 300 0 
105 1 1 -0.0136752 -0.0439347 0.0109108 0 0 0 0.00173223 -0.00122008 0.0026862 0.00982915 0.00492484 0.000534172 -5.43218 -3.91665 -4.38246 0.004 300 0 
223 1 1 0.0104012 -0.044875 0.0106259 0 0 0 0.0015479 0.00191413 -0.00133287 -0.000745178 0.00281297 0.000381944 -0.190551 -0.374305 -0.0790856 0.004 300 0 
217 1 1 0.0179657 -0.042447 0.0107615 0 0 0 0.00274245 -0.000401114 -0.000815609 -0.00375006 0.00339596 0.00160242 0.212146 0.203849 -0.488052 0.004 300 0 
151 1 1 -0.00805285 -0.0382599 0.0108237 0 0 0 -0.000186208 -0.000883962 0.00492677 -0.00303832 -0.00575845 0.00638245 -1.96539 0.720545 -0.738766 0.004 300 0 
2 1 1 0.000516819 -0.0383094 0.0102709 0 0 0 -0.0124107 0.000958657 0.00579858 0.00590344 0.00125471 0.000644499 -1.51138 -0.640203 -0.756711 0.004 300 0 
117 1 1 0.0249238 -0.0387378 0.0109057 0 0 0 0.00383354 -0.000690955 -0.0016705 -0.00614333 -0.00157272 0.00302305 -0.458363 -0.574882 0.57708 0.004 300 0 
13 1 1 -0.0323241 -0.0327812 0.011592 0 0 0 -0.00342117 0.00356045 0.00384559 -0.00121814 0.0017143 -0.0126834 1.21742 0.0268008 0.912925 0.004 300 0 
6 1 1 -0.0162376 -0.0350169 0.0113367 0 0 0 0.00157898 -0.000680059 0.00261073 -0.0018982 -0.0058596 -0.00187594 -1.38909 -0.73703 1.28351 0.004 300 0 
193 1 1 -0.0097952 -0.0304808 0.0107977 0 0 0 0.00188604 -0.00139274 0.00572058 -0.0064095 -0.00200607 -0.00118904 2.2162 0.198404 -1.40531 0.004 300 0 
47 1 1 -0.0014694 -0.0305931 0.0103831 0 0 0 0.00358581 0.00517369 -0.00148306 -0.0107242 -0.00480211 -0.00654698 -1.47042 0.00458312 -0.380235 0.004 300 0 
153 1 1 0.00656324 -0.0300998 0.011373 0 0 0 -0.0201272 0.00120217 -0.0112943 -0.00696269 -0.00331675 -0.00124057 1.35922 -0.228695 -1.03571 0.004 300 0 
41 1 1 0.0147639 -0.0317566 0.0106179 0 0 0 -0.00517457 -0.000368332 -0.00677115 -0.000522324 0.010149 0.00329238 0.484748 -0.472902 2.40721 0.004 300 0 
163 1 1 0.031132 -0.033917 0.0111622 0 0 0 0.00292173 -0.00103085 -0.000711477 -0.00428968 -0.00370537 -0.000175814 -0.252984 0.109549 -0.522939 0.004 300 0 
214 1 1 -0.0374787 -0.0268764 0.0105924 0 0 0 -0.00793548 0.0106434 0.0212678 -0.0102642 -0.00490024 -0.00264918 -1.27641 -3.28982 0.325644 0.004 300 0 
210 1 1 0.0364582 -0.0281207 0.011125 0 0 0 -0.00118424 0.000848999 -0.00212525 -0.00390902 0.000955669 0.00147912 0.0565341 0.19862 1.63338 0.004 300 0 
160 1 1 -0.041472 -0.0199346 0.0107897 0 0 0 0.00158332 -0.0131541 7.20735e-05 -0.000151098 -0.00609799 -0.0104733 -0.13851 -1.84337 1.39816 0.004 300 0 
108 1 1 -0.0262214 -0.0243209 0.0107328 0 0 0 -0.00183997 -0.010734 0.0118563 0.00700961 -0.0140308 -0.010554 2.30156 -0.395418 -3.72065 0.004 300 0 
40 1 1 -0.00548849 -0.0238143 0.0113656 0 0 0 -0.00819347 -0.001466 0.00196388 0.00855696 -0.000808569 0.00787822 -0.335915 1.70379 1.76899 0.004 300 0 
55 1 1 0.00239641 -0.023333 0.0108464 0 0 0 -0.010101 0.00883492 -0.006667 0.00403623 -7.33083e-05 0.00580856 -1.82282 0.517805 0.837851 0.004 300 0 
91 1 1 0.0119696 -0.0243803 0.0101519 0 0 0 -0.0117435 -0.00147069 -0.00333117 -0.00044228 0.00965305 0.0128862 0.471434 -0.818577 -0.845615 0.004 300 0 
112 1 1 0.0192899 -0.020574 0.010486 0 0 0 -0.00337874 0.00537333 -0.0057489 0.00976219 0.0102307 0.00307422 2.33844 1.03254 1.5919 0.004 300 0 
178 1 1 0.0318389 -0.022578 0.0144942 0 0 0 -0.00343751 0.0103776 -0.0141085 -0.00930026 0.00449721 0.00131641 -1.08458 2.60053 -1.67077 0.004 300 0 
131 1 1 0.0407636 -0.0214985 0.0110794 0 0 0 0.00198124 0.00317317 -0.00234095 0.00112165 0.00236986 0.00462923 -0.352585 -0.390333 -1.46441 0.004 300 0 
4 1 1 -0.0271445 -0.0151833 0.0101722 0 0 0 0.0139468 -0.000485638 -0.00942621 -0.00149818 -0.0034035 0.00179434 2.73325 -0.651799 3.03192 0.004 300 0 
104 1 1 -0.0202892 -0.0191112 0.011161 0 0 0 0.00367669 -0.00859932 0.00486948 0.000385258 -0.0124099 -0.00204412 -1.73644 3.59165 2.7404 0.004 300 0 
20 1 1 -0.00799943 -0.0163096 0.0110097 0 0 0 0.00963289 0.00310411 -0.000390457 0.0107277 0.00164026 -0.010839 0.635191 1.67101 -4.11521 0.004 300 0 
45 1 1 0.000756733 -0.0164629 0.014595 0 0 0 0.00256071 0.00701704 0.0106617 -0.00856427 0.00315406 -0.00779793 -0.143483 2.5432 1.50287 0.004 300 0 
159 1 1 0.00789996 -0.0176519 0.0113933 0 0 0 -0.00500308 0.00337769 -0.0048253 0.00534362 -0.00415311 0.00621053 1.40168 -0.718327 -2.04625 0.004 300 0 
136 1 1 0.034778 -0.0163662 0.0105197 0 0 0 0.0131041 0.0104717 -0.00427486 -0.00449184 0.00132951 0.00319199 0.371559 -0.933441 -1.48573 0.004 300 0 
177 1 1 -0.0443371 -0.012522 0.0108173 0 0 0 0.00325263 -0.00804808 0.000177012 -0.00137447 -0.00272244 -0.00402367 0.543 -0.454791 -2.18746 0.004 300 0 
43 1 1 -0.0361277 -0.0149368 0.0142376 0 0 0 0.0077832 -0.0192587 -0.0117459 0.00138348 0.00227808 0.00487207 5.47692 -1.41558 0.130725 0.004 300 0 
139 1 1 -0.0167778 -0.012037 0.0111348 0 0 0 0.000498735 -0.00226841 0.000965974 -0.00591314 -0.00785322 0.00426919 2.10135 -1.24563 -1.0756 0.004 300 0 
211 1 1 -0.0021994 -0.0104502 0.0103265 0 0 0 0.00276304 -0.000544192 -0.00190781 -0.0118723 0.00274264 0.00114637 -0.677209 -1.63812 1.58888 0.004 300 0 
54 1 1 0.0149096 -0.0139397 0.0107786 0 0 0 -0.0042318 0.000618278 0.00103326 0.0103809 -0.00436894 -0.00243065 -0.841154 -1.15773 -1.7598 0.004 300 0 
84 1 1 0.0232608 -0.0118194 0.0105854 0 0 0 0.00940775 -0.000398116 0.0017427 -0.00222906 -0.00538542 0.0235683 -1.66663 -0.993274 -1.29843 0.004 300 0 
180 1 1 0.0438094 -0.0141611 0.0110421 0 0 0 0.00291302 0.00781663 0.00108465 -0.00880657 -0.000492839 0.00119273 0.549649 0.579757 1.6204 0.004 300 0 
103 1 1 0.0174087 -0.00639171 0.0104328 0 0 0 0.00788227 -0.00180958 0.0029832 0.00851436 0.000216302 0.00873947 -0.354788 0.241528 1.73519 0.004 300 0 
156 1 1 0.0308686 -0.00950595 0.0106229 0 0 0 0.00746438 0.00748246 -0.000467475 0.00108341 0.000233588 0.00354931 0.860576 0.467226 3.07118 0.004 300 0 
197 1 1 -0.0457796 -0.00469176 0.0107713 0 0 0 8.23031e-05 -0.00659106 -0.000945341 0.00635514 -0.0020325 0.00121537 -0.676439 -2.1717 1.19951 0.004 300 0 
87 1 1 -0.0386829 -0.00354425 0.0142586 0 0 0 -0.00479361 -0.00476165 0.00123752 0.00530231 -0.00689515 -0.00753777 -0.161354 1.02232 -1.42793 0.004 300 0 
130 1 1 -0.031489 -0.00380314 0.010777 0 0 0 -0.000215234 -0.00531724 0.00255252 0.00609124 0.0047799 -0.00529657 -0.933332 0.394008 -1.05839 0.004 300 0 
604 1 1 -0.0225382 -0.000246646 0.011046 0 0 0 0.00334763 -0.00463926 -0.000429632 0.00141329 -0.000238342 -0.00216118 0.308309 1.17262 -1.57761 0.004 300 0 
146 1 1 -0.0154263 -0.00365396 0.010446 0 0 0 -0.00339974 -0.0157837 -0.00447845 0.00395768 -0.00649062 0.00114994 0.495703 1.04677 -0.570914 0.004 300 0 
57 1 1 -0.0053002 -0.00293833 0.0110561 0 0 0 -0.0017124 -0.0102131 0.011742 0.00334177 -0.00420991 0.00252564 1.7388 -0.416468 3.21263 0.004 300 0 
493 1 1 0.011774 -0.000802943 0.0103676 0 0 0 0.000266116 -0.0073926 -0.00691276 0.00885326 -0.00624698 0.00472574 -1.50132 4.37735 0.337467 0.004 300 0 
31 1 1 0.025048 -0.00409467 0.010376 0 0 0 0.00179795 0.00118248 0.00346024 -0.00114528 -0.00354919 0.0139299 2.42169 2.65548 2.89701 0.004 300 0 
588 1 1 0.0326021 -0.00180412 0.0105212 0 0 0 0.00269369 0.00611254 -0.00213697 -0.00495604 0.0017355 0.0133272 -1.7799 -1.4292 -1.81798 0.004 300 0 
63 1 1 0.0459052 -0.00340486 0.0119197 0 0 0 0.00176467 -9.20878e-05 -0.00513754 -0.000541011 -3.70504e-05 -0.00147357 -0.705156 -0.674417 -0.588822 0.004 300 0 
107 1 1 -0.00840017 -0.0452999 0.0177533 0 0 0 0.00619343 0.000253067 0.00484147 0.000926027 0.00152296 -0.0036511 1.38174 0.489452 -1.48015 0.004 300 0 
222 1 1 -0.00129039 -0.0419211 0.0170965 0 0 0 0.001495 0.00970565 0.0131845 0.00342811 0.00441133 -0.000571127 -0.680984 2.87816 1.62041 0.004 300 0 
142 1 1 0.00623875 -0.040174 0.0154244 0 0 0 0.000840078 0.00284243 -0.00365208 -0.00177152 -0.00401288 0.00706417 0.313418 0.562566 -1.23673 0.004 300 0 
172 1 1 0.0116956 -0.0445905 0.0191079 0 0 0 -0.0019149 0.00111335 -0.00179076 -0.00495834 0.000466489 0.00218384 -0.230515 -1.64457 0.689963 0.004 300 0 
109 1 1 0.0204386 -0.0412893 0.0182422 0 0 0 0.00254054 0.00293441 -0.00103407 -0.000191499 0.000947511 -0.00267807 -0.644762 0.830316 -1.24524 0.004 300 0 
150 1 1 -0.0272876 -0.0371059 0.0159113 0 0 0 0.0018312 -0.00158679 0.00329077 0.00235793 0.00254763 -0.00743071 1.03423 0.380624 -0.174233 0.004 300 0 
38 1 1 -0.0197135 -0.0373717 0.0182649 0 0 0 0.00228862 -0.0149917 0.00854992 0.000309273 -0.000249766 -0.00422463 -2.15053 -0.767847 -1.29195 0.004 300 0 
199 1 1 -0.0117938 -0.0369254 0.0177086 0 0 0 0.00505561 -0.00155098 0.0107398 -0.000910696 0.000815494 0.00505852 2.62574 1.21044 0.952218 0.004 300 0 
93 1 1 0.0138037 -0.0378009 0.0155665 0 0 0 0.000431939 -0.0008731 -0.00281922 -0.00359232 0.00587146 0.00919701 -1.02874 -0.608679 0.409913 0.004 300 0 
64 1 1 0.0279416 -0.0365418 0.0179684 0 0 0 0.00496698 0.00322417 0.00302582 -0.00494833 -0.00617831 -0.00136102 -0.250875 0.695034 -0.273189 0.004 300 0 
22 1 1 -0.0327967 -0.032364 0.0195194 0 0 0 0.0102655 -0.0101258 -0.000133023 0.00311691 0.00214761 -0.00436771 2.34736 3.28916 -1.59696 0.004 300 0 
174 1 1 -0.0223875 -0.0302243 0.016226 0 0 0 0.0208863 -0.00749276 0.00287006 -0.00426438 0.00253593 -0.00808808 3.31438 0.39204 1.43993 0.004 300 0 
32 1 1 -0.00424835 -0.0345235 0.0167346 0 0 0 -0.000485435 0.00875289 -0.000186545 -0.00677528 0.00328508 -0.00542112 0.582365 0.0761243 -0.774839 0.004 300 0 
128 1 1 0.00349581 -0.0332109 0.0179979 0 0 0 0.000251762 0.000802556 -0.00525376 -0.00376407 -0.00432997 0.00464925 -3.25673 3.77992 3.22575 0.004 300 0 
88 1 1 0.0113743 -0.030541 0.0177229 0 0 0 -0.00304737 -0.000158934 -0.0171327 0.00438591 -0.00360653 -0.00543993 -2.49476 0.367066 1.81215 0.004 300 0 
137 1 1 0.0207299 -0.0338576 0.0155315 0 0 0 0.00204221 0.000220724 -0.00720534 -0.00249175 0.0124487 0.0132058 -1.37214 0.5779 0.790021 0.004 300 0 
154 1 1 0.0339749 -0.0311551 0.0180694 0 0 0 -0.00402641 8.88225e-05 0.0035826 -0.00461237 -0.00729447 -0.00481236 -0.0420799 0.522218 -1.40235 0.004 300 0 
52 1 1 -0.0319938 -0.0252743 0.0160412 0 0 0 -7.41186e-05 -0.00205528 0.0139404 0.00974532 -0.00816193 -0.0273681 2.099 2.88762 -3.09446 0.004 300 0 
80 1 1 -0.00962456 -0.0264805 0.0175924 0 0 0 0.0118532 -0.00717275 0.0107833 0.00163536 -0.00136724 -0.00283689 -0.230945 2.34075 0.987673 0.004 300 0 
125 1 1 -0.00119816 -0.0268393 0.0173994 0 0 0 -0.000449288 -0.00329741 -0.00291584 0.0015943 -0.00277674 -0.00605022 3.93728 -2.3399 -2.05004 0.004 300 0 
72 1 1 0.017918 -0.0264604 0.0156162 0 0 0 -0.000981157 0.00244858 -0.00648663 0.00326476 0.0101665 0.0289037 0.527449 -0.864845 -0.0477034 0.004 300 0 
34 1 1 0.0269074 -0.0287594 0.0155498 0 0 0 0.000669208 0.00465874 -0.00900706 -0.00835694 -0.00951816 -0.00113123 -5.40458 -2.60619 -0.564185 0.004 300 0 
218 1 1 -0.0395792 -0.0235005 0.0176278 0 0 0 -0.00480839 -0.00417072 0.0104348 0.000187776 -0.000134076 -0.0163298 -2.14988 -2.25911 2.18487 0.004 300 0 
70 1 1 -0.0247211 -0.0230124 0.0183948 0 0 0 0.0165403 -0.00660991 0.0132719 -0.000640767 0.00174626 -0.00517901 -1.52849 3.22075 0.393898 0.004 300 0 
132 1 1 -0.0171146 -0.0241485 0.0164342 0 0 0 0.0149422 -0.000918652 0.0092018 0.00604529 0.00225851 -0.00576535 1.01422 -1.75927 -1.57887 0.004 300 0 
86 1 1 -0.00512135 -0.0200418 0.0185303 0 0 0 0.00661165 -0.00296462 0.0115123 0.00324403 -0.00367204 0.000522158 0.798482 -1.64319 0.607936 0.004 300 0 
196 1 1 0.00703209 -0.0239051 0.0172036 0 0 0 -0.00398513 -0.00293646 -0.0161979 0.00335967 -0.00113516 0.00662264 3.70575 1.92473 -3.5875 0.004 300 0 
362 1 1 0.0243813 -0.0213894 0.0170893 0 0 0 -0.00491538 0.00442749 -0.0180334 -0.00246035 -0.00878173 0.00784321 3.77574 0.556745 1.91459 0.004 300 0 
49 1 1 0.0387588 -0.02485 0.0179971 0 0 0 0.000759601 -0.000962806 -0.00551148 -0.00644374 0.00349418 -0.00107884 -2.34031 0.345068 0.0461884 0.004 300 0 
173 1 1 -0.0430899 -0.0163536 0.0176957 0 0 0 0.00245988 -0.00998886 -0.00731093 -0.000152914 -0.00114666 0.00544741 -0.814843 1.04996 -3.30669 0.004 300 0 
50 1 1 -0.0295775 -0.0168396 0.018226 0 0 0 0.00574459 -0.0139037 0.00145927 -0.00517338 0.00960317 -0.00335915 -2.46328 -3.39378 3.14665 0.004 300 0 
202 1 1 -0.0136287 -0.0169663 0.0165424 0 0 0 0.0207733 0.00635706 -0.00633356 0.0312135 -0.00412497 -0.0136165 -0.610037 -0.818894 3.54971 0.004 300 0 
129 1 1 0.0137466 -0.0197424 0.0163076 0 0 0 -0.00568827 -0.00323019 0.00184896 -0.000536327 0.000562091 0.0300942 1.02727 2.74285 0.287687 0.004 300 0 
42 1 1 0.0198927 -0.0148366 0.0170898 0 0 0 -0.0068548 -0.00273843 0.0046069 0.0069491 -0.000403699 0.0298977 1.3415 -2.20839 1.04443 0.004 300 0 
82 1 1 0.0291478 -0.0150899 0.0160197 0 0 0 0.00854646 0.00403284 -0.00593417 -0.0235499 -0.00305424 -0.0064535 0.834502 1.7308 -0.774006 0.004 300 0 
1 1 1 0.0424805 -0.0178353 0.0179068 0 0 0 0.00481762 0.00222278 -0.00553508 -0.00527248 0.00748065 0.00329589 1.32761 -0.79722 -0.387401 0.004 300 0 
168 1 1 -0.0225397 -0.0135825 0.0164393 0 0 0 0.0047308 -0.00960691 0.00439277 0.000326766 -0.00364489 0.000493557 0.892105 0.74257 1.88986 0.004 300 0 
121 1 1 -0.00550722 -0.0122305 0.0173467 0 0 0 0.0136353 -0.00417683 0.00625983 -0.00712147 -0.00971097 2.31642e-05 -1.86768 -2.04209 0.80512 0.004 300 0 
28 1 1 0.00782616 -0.0138498 0.0183569 0 0 0 0.00986561 0.00800733 -0.00911705 0.00642513 -0.00457052 0.00359972 -3.40138 3.53663 -1.47161 0.004 300 0 
60 1 1 0.0375444 -0.011694 0.0163171 0 0 0 0.00347293 0.0111947 0.00370803 -0.00359553 -0.00103124 -0.00669729 1.9308 0.055458 3.11781 0.004 300 0 
135 1 1 -0.0452127 -0.00867901 0.0176742 0 0 0 0.00308138 -0.00585395 0.00374589 0.00509885 -0.00238118 0.00781008 -0.477306 0.108507 1.52987 0.004 300 0 
190 1 1 -0.0298212 -0.00918565 0.016341 0 0 0 -0.0274965 -0.0173392 -0.00417077 0.00511355 0.0154666 0.00146928 -0.66654 3.78404 1.59157 0.004 300 0 
7 1 1 -0.020403 -0.00593818 0.0162066 0 0 0 0.000142606 -0.0114071 0.000902391 0.00375977 -0.00243641 -0.00424369 -0.901859 1.37953 -1.28053 0.004 300 0 
145 1 1 -0.0120274 -0.00807518 0.0160442 0 0 0 0.0111308 -0.0031938 -0.00263544 -0.00897753 -0.0116433 0.0101808 -4.00867 2.50139 -1.53981 0.004 300 0 
186 1 1 0.001668 -0.00894923 0.0171843 0 0 0 0.0104031 0.00920031 0.00822856 8.73674e-06 -0.00356486 -0.00152192 2.99597 1.5293 1.81395 0.004 300 0 
56 1 1 0.0142093 -0.00924467 0.0171955 0 0 0 0.00341692 0.00798138 -0.00756443 0.0228576 -0.0128353 0.00168464 6.04908 1.58428 -1.2361 0.004 300 0 
191 1 1 0.0218751 -0.00717151 0.016917 0 0 0 0.0102436 -0.00917002 0.00587963 0.00337615 0.00863821 0.000536135 -0.021086 -0.347387 -6.42001 0.004 300 0 
208 1 1 0.0313617 -0.00573906 0.0176086 0 0 0 0.020858 -0.0250442 0.0166436 -0.00653976 -0.0134107 0.0052817 0.977268 -3.18591 -5.12519 0.004 300 0 
92 1 1 0.0450809 -0.00931289 0.0172341 0 0 0 0.00260826 0.00901421 0.00645907 -0.000670633 -0.0067452 -0.0079761 -0.82249 -0.619833 -2.10544 0.004 300 0 
192 1 1 -0.0460698 -0.00078409 0.0176442 0 0 0 8.26896e-05 -0.00305422 -0.00322085 0.00580182 0.00854133 0.000646562 -0.285271 1.31029 -1.57181 0.004 300 0 
462 1 1 -0.0272753 -0.00173278 0.0172246 0 0 0 0.00901884 -0.0246738 -0.00215922 0.000609653 0.00683662 0.00157912 3.703 -1.44732 -7.75645 0.004 300 0 
450 1 1 -0.012649 -0.000603821 0.0183946 0 0 0 0.025084 0.00263803 -0.0223243 -0.0133898 -0.0115828 0.0224248 0.345945 -1.90957 -0.592846 0.004 300 0 
111 1 1 -0.0055652 -0.00435117 0.0188767 0 0 0 -0.00974974 0.0221769 0.0221993 -0.0112074 0.0026266 0.00219238 -4.33879 -0.682066 1.62144 0.004 300 0 
622 1 1 0.000874449 -0.000969986 0.0156293 0 0 0 -0.00156009 -0.00325664 0.0111954 -0.00360484 0.000950986 0.000139088 1.87721 3.07574 1.85442 0.004 300 0 
106 1 1 0.00802437 -0.00433813 0.0163491 0 0 0 0.00790465 0.0206533 0.0152862 0.0175274 -0.0023449 0.00651767 -4.76565 -5.28241 1.5883 0.004 300 0 
651 1 1 0.0256628 -0.00022595 0.0172598 0 0 0 0.0296342 -0.0139219 0.00413586 -0.00746646 -0.00661853 0.00510339 -1.86001 -0.753176 1.25802 0.004 300 0 
133 1 1 0.0389791 -0.00367729 0.0166582 0 0 0 0.00893881 0.0114728 -0.00371287 0.0147115 0.00353607 -0.00271642 0.321918 2.49006 4.06457 0.004 300 0 
164 1 1 0.0460306 -0.00186862 0.0198713 0 0 0 0.001897 0.0122052 0.000509145 0.00296834 -0.00832569 0.00469248 2.99367 2.03143 1.56845 0.004 300 0 
127 1 1 -0.00211774 -0.0460479 0.0238274 0 0 0 0.00658689 -0.00318033 0.00913925 -0.00915107 0.00428285 -0.00482281 3.25084 0.425247 -2.2506 0.004 300 0 
126 1 1 -0.0153885 -0.0434285 0.0208938 0 0 0 0.0107977 -0.00731692 0.0133204 0.00133204 0.00149022 0.00731184 0.756876 1.56245 2.72315 0.004 300 0 
143 1 1 0.0043594 -0.0415703 0.0229705 0 0 0 -0.00026198 0.00137187 -0.00260432 -0.0129556 -0.00264272 0.0139693 0.617052 -1.06985 2.40721 0.004 300 0 
110 1 1 -0.0274311 -0.0370153 0.023836 0 0 0 0.00660728 -0.0104652 0.00326649 0.0037371 -0.0068757 6.92192e-05 1.4075 0.360409 -2.7653 0.004 300 0 
371 1 1 -0.00696776 -0.0398189 0.0233507 0 0 0 0.00532152 -0.00430516 0.0135 -0.0227378 0.00195356 -0.0119731 -0.446116 -2.80591 1.97584 0.004 300 0 
114 1 1 0.0113279 -0.0377275 0.0230452 0 0 0 -0.00870438 0.00258639 0.00379508 -0.0163035 -0.00261975 0.0188035 0.307141 -0.771759 -2.17422 0.004 300 0 
85 1 1 -0.0158554 -0.0307513 0.0207184 0 0 0 0.0122816 0.000779466 0.0119798 0.00396122 -0.00872938 -0.0213391 -2.2561 -2.30666 1.64044 0.004 300 0 
390 1 1 -0.00835941 -0.0320246 0.0230778 0 0 0 0.012281 -0.00662239 0.0117867 0.00684746 0.00579463 -0.0113017 0.438189 -0.477281 -2.44794 0.004 300 0 
182 1 1 -0.000594949 -0.031232 0.0245281 0 0 0 0.0125004 -0.00432023 0.00446321 0.00989843 0.00721152 0.00665712 1.31696 3.10644 3.4066 0.004 300 0 