ITEM: TIMESTEP
16800
ITEM: NUMBER OF ATOMS
890
ITEM: BOX BOUNDS mm mm mm
-0.05 0.05
-0.05 0.05
0 0.15
ITEM: ATOMS id type type x y z ix iy iz vx vy vz fx fy fz omegax omegay omegaz radius f_Temp[0] f_heatFlux[0] 
59 1 1 -0.000715664 -0.0460981 0.00395593 0 0 0 -0.000109562 3.68126e-07 -0.000159046 -2.32053e-05 -0.000260244 -6.91991e-05 -0.0159965 -0.0329065 0.0343977 0.004 300 0 
170 1 1 -0.0173497 -0.0426413 0.0039731 0 0 0 -4.20107e-05 -8.90525e-05 -1.65547e-05 -3.63102e-05 -4.27351e-05 -7.69842e-05 -0.000894723 0.0188917 -0.00263848 0.004 300 0 
15 1 1 -0.00975008 -0.0449637 0.00393406 0 0 0 -0.000165804 -8.29783e-05 5.67924e-05 -0.000260735 -1.80867e-05 -0.000192459 0.0222791 -0.0452297 0.00569709 0.004 300 0 
116 1 1 0.00648759 -0.0428194 0.00395827 0 0 0 -0.000248814 5.11143e-05 -0.000169033 -0.000176278 -0.000175892 0.000611548 -0.0631084 -0.0457517 -0.0658574 0.004 300 0 
158 1 1 0.0143628 -0.0437625 0.00389948 0 0 0 -0.000199192 -0.000203713 -3.11784e-05 0.00021932 0.000206801 0.00030773 0.0245982 -0.0146006 0.0382703 0.004 300 0 
98 1 1 0.0216779 -0.0406527 0.00394254 0 0 0 -0.000196176 3.52679e-05 -0.000114693 0.000588177 -0.000137333 0.000220909 -0.00422148 0.0235821 0.0741084 0.004 300 0 
169 1 1 -0.0244317 -0.0390657 0.00391433 0 0 0 1.22946e-05 -4.30847e-05 3.93582e-05 8.79258e-05 9.17068e-05 1.8013e-05 0.00292878 -0.00785139 -0.0136473 0.004 300 0 
89 1 1 -0.0118117 -0.0369233 0.00395482 0 0 0 4.0703e-07 -0.00032819 7.0454e-05 1.55605e-06 -0.000282962 6.18527e-05 0.0790161 -0.0144145 -0.0359084 0.004 300 0 
152 1 1 -0.00418312 -0.0390219 0.00390557 0 0 0 -5.84223e-05 -0.000198203 -7.1557e-05 4.20226e-06 -0.000132246 -2.19135e-07 0.036465 0.00854919 0.0469144 0.004 300 0 
23 1 1 0.0153488 -0.0358821 0.00391075 0 0 0 -0.000301692 -0.000162157 -0.000116389 0.000106041 0.00026297 0.000535375 0.00182462 -0.0397642 -0.0414703 0.004 300 0 
118 1 1 -0.0307534 -0.0342395 0.0039273 0 0 0 4.46825e-05 -2.9838e-05 8.03403e-06 1.60317e-05 -1.2515e-05 3.8984e-05 0.00909102 0.00931237 -0.00243552 0.004 300 0 
30 1 1 -0.0188786 -0.0333717 0.00395313 0 0 0 0.000112322 -0.000176286 5.77373e-05 0.000117811 4.68088e-06 -2.9451e-05 0.00366897 0.00697664 -0.0144014 0.004 300 0 
215 1 1 -0.00603684 -0.0313235 0.00390705 0 0 0 -1.19365e-05 -0.000295428 -1.48826e-05 0.000102231 7.56831e-05 -5.37867e-05 0.0496225 -0.0332601 -0.0718068 0.004 300 0 
74 1 1 0.00184173 -0.0338193 0.00390707 0 0 0 2.57963e-05 -5.6227e-05 -8.97037e-05 -0.000174776 0.000159645 -4.39328e-05 0.0116717 0.0410125 -0.0420388 0.004 300 0 
24 1 1 0.00917895 -0.0308339 0.00392051 0 0 0 -0.000163076 -0.000106249 -0.000120546 -0.000235118 0.00011777 2.48435e-05 0.0133275 -0.0271129 0.00391992 0.004 300 0 
198 1 1 0.0259424 -0.0339524 0.00395622 0 0 0 -8.51138e-05 0.000333742 -0.000134416 0.000596172 -4.34549e-05 -0.000162434 -0.0634853 -0.0520606 -0.128766 0.004 300 0 
161 1 1 0.0335298 -0.0316081 0.00391332 0 0 0 2.79882e-05 9.70759e-05 -0.000101211 -2.28352e-05 0.000751315 0.000230685 -0.0801169 0.0167984 0.0407629 0.004 300 0 
8 1 1 -0.0322715 -0.0264165 0.00398415 0 0 0 6.74035e-05 -3.67987e-06 -2.1628e-05 -0.00014673 -0.00016973 -5.90219e-06 -0.0210551 -0.00354328 0.0103447 0.004 300 0 
12 1 1 -0.0244157 -0.0276965 0.00386384 0 0 0 0.000142134 -0.000125738 3.6041e-05 -5.86335e-05 -0.000147377 2.0497e-05 0.00899437 0.0118529 -0.0206033 0.004 300 0 
188 1 1 -0.013175 -0.0277762 0.00396654 0 0 0 0.000124559 -0.00015776 -7.646e-05 9.72916e-05 0.00024917 -6.84661e-05 0.00588293 0.0234996 0.0193199 0.004 300 0 
77 1 1 -9.97459e-05 -0.0260807 0.00389502 0 0 0 -7.46569e-05 -4.57078e-05 -0.000115039 0.00026231 -0.000190478 1.33542e-05 -0.0216766 0.0486518 0.151725 0.004 300 0 
113 1 1 0.0165647 -0.0280205 0.00388614 0 0 0 -0.000108617 -9.24918e-05 -0.000231645 -0.000105506 0.000172766 7.73688e-05 0.0251731 0.0181979 -0.00583583 0.004 300 0 
183 1 1 0.0384538 -0.0253749 0.00393787 0 0 0 0.0001526 -6.67479e-06 -8.67877e-05 0.000339056 9.48711e-05 0.00043629 0.0446828 -0.0418652 -0.0799067 0.004 300 0 
162 1 1 -0.0396317 -0.0234166 0.0039091 0 0 0 4.28137e-05 -2.64772e-05 -2.61106e-05 -7.11638e-06 -2.39256e-05 1.28886e-05 0.0030305 0.0116631 -0.00620197 0.004 300 0 
53 1 1 -0.0272095 -0.0202483 0.00395266 0 0 0 0.000384644 -0.000202984 1.47523e-05 4.81273e-05 -0.000258101 -6.3702e-06 0.00240184 0.0481754 -0.0201409 0.004 300 0 
148 1 1 -0.0187596 -0.0220646 0.00393828 0 0 0 0.000181267 -0.000162365 2.81811e-05 -0.000456498 9.6158e-05 -9.34852e-05 0.019217 0.0364089 -0.0239163 0.004 300 0 
195 1 1 -0.00727868 -0.0215507 0.00394678 0 0 0 -3.23754e-05 -0.000270175 -0.000231207 -0.000848067 -5.77637e-05 -0.000342462 0.0569822 0.0168354 -0.113174 0.004 300 0 
179 1 1 0.00736589 -0.023103 0.00394274 0 0 0 -0.000239876 -0.000136197 -0.000140105 -0.000143642 -4.68975e-05 0.000252325 -0.00141659 -0.0213312 0.0380242 0.004 300 0 
95 1 1 0.01485 -0.0203099 0.00393215 0 0 0 -0.000151625 4.07496e-05 -0.000372034 7.79089e-06 5.03774e-05 0.000248869 -0.0238281 0.0083387 0.0318537 0.004 300 0 
76 1 1 0.0230029 -0.0233055 0.00397454 0 0 0 0.000213604 -9.81435e-05 -0.000404098 -0.000224599 0.000235286 0.000312936 0.0343535 0.132484 -0.108835 0.004 300 0 
100 1 1 0.0325593 -0.0200898 0.00388626 0 0 0 0.000487068 0.000100693 -0.000247148 -2.6183e-05 -6.38795e-05 -0.000147396 -0.0459781 0.109273 0.0652276 0.004 300 0 
65 1 1 -0.0430758 -0.0162785 0.00393394 0 0 0 6.67632e-05 -1.97886e-05 -1.03014e-06 -2.4313e-05 1.7227e-05 -3.69429e-05 0.00284372 -0.00274333 -0.000887174 0.004 300 0 
102 1 1 -0.0351608 -0.0155065 0.00394481 0 0 0 0.000281948 -0.000155842 -3.23433e-05 -6.27167e-05 -0.000126824 -3.8469e-05 0.0495238 0.0535416 -0.0365055 0.004 300 0 
213 1 1 -0.0132596 -0.0162743 0.00397371 0 0 0 0.000172304 -0.000130347 -2.76004e-06 -0.000196755 1.1542e-05 -0.000180837 0.00660231 0.00619199 0.0498737 0.004 300 0 
10 1 1 0.00114844 -0.0182526 0.00475017 0 0 0 -0.000284078 -0.000113935 -0.000343251 -0.000437753 -0.000129953 0.000233325 -0.0486359 -0.0029362 -0.0597815 0.004 300 0 
5 1 1 0.008797 -0.0152561 0.00390397 0 0 0 -0.000141042 -0.000175604 -0.000277176 1.60943e-05 0.000191673 9.14179e-05 0.0328497 -0.0224132 -0.00697037 0.004 300 0 
96 1 1 0.0211685 -0.0155244 0.00395623 0 0 0 -0.000187251 7.99769e-05 -0.000248947 0.000305065 5.00937e-05 -2.43049e-05 -0.0153317 -0.0521464 -0.054339 0.004 300 0 
167 1 1 0.0421925 -0.0183691 0.00392042 0 0 0 0.000202893 -6.38487e-05 0.000135443 0.000252385 -0.000144916 -6.23258e-06 0.0364033 0.0754564 0.034439 0.004 300 0 
124 1 1 -0.0290074 -0.0104705 0.00394655 0 0 0 0.000440924 -0.000237403 -0.000152736 -8.49213e-05 -5.95788e-05 -0.00010185 0.0512647 0.108373 0.030128 0.004 300 0 
220 1 1 -0.021777 -0.0144551 0.00398121 0 0 0 0.00036188 -0.000202738 -0.000139868 0.00032144 -0.000208772 9.29872e-05 0.0551416 0.0767978 0.0411623 0.004 300 0 
144 1 1 -0.00535491 -0.0138041 0.0038824 0 0 0 0.00015531 -0.000133886 -0.000194623 -0.000562949 0.000166807 -0.000197394 0.0294631 0.0509613 0.0139542 0.004 300 0 
26 1 1 0.0025553 -0.0104637 0.00390633 0 0 0 4.76031e-05 -0.000154597 -0.00016711 -0.000283255 4.49834e-05 -0.000166672 0.0495585 0.00698154 -0.0496789 0.004 300 0 
194 1 1 0.0287349 -0.0131038 0.00393116 0 0 0 2.93654e-05 -6.83637e-05 -0.000226524 0.000151148 0.000245403 -0.000507598 0.00414131 0.0217988 0.0327112 0.004 300 0 
37 1 1 0.0366698 -0.0122323 0.00393291 0 0 0 0.000172837 0.00013904 -0.000323974 0.000162397 0.000524068 -9.57543e-05 -0.002533 0.0407023 -0.0354324 0.004 300 0 
219 1 1 0.0447294 -0.0108722 0.00390878 0 0 0 9.99589e-05 -3.60814e-05 -7.83226e-05 -0.000415016 -0.000226175 -8.89586e-05 -0.0491457 0.0310777 -0.00912484 0.004 300 0 
636 1 1 -0.0451997 -0.00864084 0.00392106 0 0 0 6.86446e-05 -2.24805e-05 -1.80618e-05 -9.81652e-06 -1.04454e-05 -1.80703e-05 0.000725992 0.0140475 -0.00554013 0.004 300 0 
39 1 1 -0.0161468 -0.00885171 0.00388961 0 0 0 0.000198417 -0.000131866 -4.76744e-05 -0.000153188 0.000279742 2.15581e-05 0.017387 0.0275125 -0.0112237 0.004 300 0 
171 1 1 -0.00395988 -0.00597868 0.00392063 0 0 0 0.000128351 -9.93261e-05 -4.67977e-05 -0.000239758 -4.97711e-05 -0.000181252 0.0211828 0.0120163 0.0154804 0.004 300 0 
200 1 1 0.0146283 -0.00986492 0.00396463 0 0 0 6.28661e-05 -0.000133336 -0.000140654 0.000260576 -0.000201452 -0.000262081 0.00769547 0.0175715 0.00314008 0.004 300 0 
21 1 1 0.0222505 -0.00762165 0.00394351 0 0 0 1.36501e-05 -9.43426e-07 -0.000139427 0.000417833 0.000125098 -0.000463849 0.00347119 0.0152962 -0.00513351 0.004 300 0 
17 1 1 0.0298452 -0.00520838 0.00394922 0 0 0 -8.85674e-05 8.65341e-06 -0.000228885 8.0102e-05 0.000284405 -0.000411228 -0.00914691 -0.00865559 0.012221 0.004 300 0 
477 1 1 -0.0445897 -0.00071019 0.00396443 0 0 0 9.20563e-05 -2.52543e-05 -2.86147e-05 4.46053e-05 -1.67242e-05 1.47075e-05 0.0021672 0.0188351 0.00175293 0.004 300 0 
140 1 1 -0.0352688 -0.00371637 0.00387174 0 0 0 0.000158801 -0.00016077 -3.07989e-05 3.69669e-05 -0.000114114 -7.2879e-05 0.0378578 0.0293446 -0.0182453 0.004 300 0 
119 1 1 -0.0273898 -0.00269729 0.00396357 0 0 0 0.000220468 -0.000201551 -2.05668e-05 -0.000118734 0.000140243 -0.000125991 0.0389795 0.0110086 0.0269892 0.004 300 0 
207 1 1 -0.0194909 -0.00168735 0.00389471 0 0 0 0.00022495 -0.000131994 5.93038e-05 -0.000156873 0.000168295 -0.000120848 0.0237014 0.0257812 0.000623923 0.004 300 0 
69 1 1 -0.0111573 -0.00264595 0.00392995 0 0 0 0.000159779 -0.000136267 -3.72979e-06 -5.54562e-05 0.000199978 -0.000140355 0.0251372 0.0230279 0.00513209 0.004 300 0 
221 1 1 0.00874762 -0.00448792 0.00393241 0 0 0 6.38484e-05 -0.000421127 -0.00016819 -0.000145632 -0.000335067 -0.000285063 0.0975586 0.00895767 -0.0506195 0.004 300 0 
457 1 1 0.0163511 -0.00208035 0.00396025 0 0 0 -3.64633e-05 -0.000261544 -3.59004e-05 3.85834e-05 -0.000436649 -0.000163305 0.0592294 -0.0053577 0.0260549 0.004 300 0 
155 1 1 0.0378913 -0.00224863 0.00393648 0 0 0 0.000310669 9.2171e-05 -0.000368733 0.000198832 0.000454752 6.7094e-05 -0.0239691 0.0948121 0.0609991 0.004 300 0 
665 1 1 0.0459191 -0.00307715 0.00394258 0 0 0 0.00012728 -0.000215293 -0.000127021 -0.000350422 -1.64246e-05 -6.61802e-05 0.0720852 0.0152593 0.00810932 0.004 300 0 
120 1 1 0.0091855 -0.0371093 0.00876845 0 0 0 -0.000159444 -0.000159903 -0.000190431 -0.00076031 0.000880345 0.000458491 0.0799541 0.0670619 0.0154914 0.004 300 0 
9 1 1 -0.0247148 -0.0333588 0.00937648 0 0 0 0.000135352 -0.000133511 0.000110844 0.000125454 -7.11559e-05 3.71717e-05 0.0160453 0.0115531 -0.0235291 0.004 300 0 
101 1 1 -0.0188641 -0.0277187 0.00955207 0 0 0 0.000289208 -0.000332367 2.93904e-05 -7.01339e-05 1.9522e-05 -9.46749e-05 0.0250832 0.0170058 0.0138178 0.004 300 0 
48 1 1 0.0221998 -0.0293109 0.00920034 0 0 0 7.6884e-05 0.00045976 -0.000654914 0.000260489 -0.00103904 -0.000527869 -0.0313022 0.0508569 0.183402 0.004 300 0 
75 1 1 0.02936 -0.0261745 0.0078741 0 0 0 0.000359914 0.000244758 -0.00046367 0.000329983 0.000194508 -0.000124716 0.0842885 -0.0264661 -0.229427 0.004 300 0 
46 1 1 -0.0327978 -0.0205737 0.00958395 0 0 0 0.000341503 -0.000110166 -8.93703e-05 -0.000146599 -0.0001079 -1.56923e-05 -0.0440228 -0.0526826 0.0057617 0.004 300 0 
33 1 1 -0.0130344 -0.0220246 0.00949617 0 0 0 0.000214968 -0.000578172 -0.000105276 -0.000528382 0.000260735 -0.000136002 0.0880566 -0.018208 -0.0508191 0.004 300 0 
11 1 1 0.0268905 -0.0187454 0.0092451 0 0 0 0.000350003 -0.000103264 -0.000538265 3.47154e-05 0.000517235 -0.000214432 -0.0464295 -0.123162 0.113185 0.004 300 0 
71 1 1 -0.0372787 -0.00953891 0.00877245 0 0 0 0.000226353 -0.000128407 -2.12456e-05 8.32572e-05 -0.000164093 -9.12873e-05 -0.0510245 -0.0422644 0.0385353 0.004 300 0 
62 1 1 -0.022807 -0.00771192 0.00813972 0 0 0 0.000348066 -0.000324683 -0.000124634 -0.000296933 0.000248685 -7.24251e-05 0.0516997 -0.0537458 -0.00490185 0.004 300 0 
19 1 1 -0.00970655 -0.00905678 0.00849144 0 0 0 0.00028666 -0.000315168 -9.194e-05 -0.000453522 0.000393996 -0.000255333 0.0471015 -0.00660291 -0.00404494 0.004 300 0 
187 1 1 0.00796696 -0.00988092 0.00975738 0 0 0 0.00011389 -0.000426458 -0.000441556 -4.10099e-05 0.000312758 -0.000168333 -0.019419 0.0298721 0.00108886 0.004 300 0 
157 1 1 0.0395836 -0.00752085 0.00962911 0 0 0 0.00066503 6.42724e-05 -0.000652999 -0.000188147 0.000162566 0.000170856 -0.0297371 0.0641297 -0.0687535 0.004 300 0 
18 1 1 0.0022911 -0.00405024 0.00852762 0 0 0 0.000356162 -0.000217049 -0.000121888 -0.000396187 -6.5851e-05 -0.000454093 -0.0357573 0.0271014 -0.0383025 0.004 300 0 
185 1 1 -0.00531071 -0.0457346 0.0104436 0 0 0 8.49899e-05 -0.000247694 -0.00012528 -0.000149687 -0.00014747 -7.23716e-05 0.0221873 0.137476 -0.0188032 0.004 300 0 
83 1 1 0.00256789 -0.0459477 0.0112649 0 0 0 0.000122839 -0.000419423 -9.30374e-05 -0.000346191 0.000681235 -0.00066197 -0.0136597 -0.196571 -0.0149732 0.004 300 0 
58 1 1 -0.0218566 -0.040582 0.0112767 0 0 0 -8.53647e-06 -8.80279e-05 0.0001226 0.000257539 0.000157192 8.43902e-05 0.0275744 0.000998123 -0.0067852 0.004 300 0 
105 1 1 -0.0135856 -0.043966 0.0108786 0 0 0 -1.81322e-05 -0.000260598 0.000124724 8.15365e-05 -0.000316432 -8.6147e-05 0.0282744 -0.0267957 -0.061099 0.004 300 0 
223 1 1 0.010396 -0.0448682 0.0106695 0 0 0 0.000107365 -0.00021636 0.000181506 8.10878e-05 0.000666076 -0.000343396 0.00399264 0.0985494 0.0339566 0.004 300 0 
217 1 1 0.0179436 -0.0424256 0.0108278 0 0 0 4.70914e-05 6.12339e-06 -0.000274844 0.000410493 0.000625868 -4.12781e-05 -0.092007 0.0804152 -0.0061873 0.004 300 0 
6 1 1 -0.0162616 -0.0350302 0.0113128 0 0 0 0.000184895 -0.000411 0.000214317 8.28602e-05 0.000448396 -0.000103018 -0.0197049 -0.00964645 -0.0891309 0.004 300 0 
151 1 1 -0.00801292 -0.0382599 0.0108119 0 0 0 0.000139327 -0.000483876 7.6781e-05 -0.000319036 2.86297e-05 -0.000120301 -0.0387643 0.0530961 0.033075 0.004 300 0 
2 1 1 0.000444581 -0.0383079 0.0102714 0 0 0 0.00019261 -0.000347486 -0.000145066 -0.00027077 0.000315451 0.000142264 0.0589289 0.0416471 -0.00964316 0.004 300 0 
117 1 1 0.0249199 -0.0387274 0.010918 0 0 0 -1.40905e-05 -7.9521e-05 -0.000637823 0.000134027 -7.11087e-05 -0.00028628 -0.0361817 -0.011625 -0.0430032 0.004 300 0 
13 1 1 -0.0323458 -0.0327542 0.0115374 0 0 0 8.55075e-05 -6.34789e-05 3.24797e-06 8.99726e-05 -4.74147e-06 0.000110443 -0.00548879 -0.00965589 -0.0019083 0.004 300 0 
193 1 1 -0.00982567 -0.0305001 0.0107703 0 0 0 0.000269801 -0.000732159 6.94344e-05 0.000240224 0.000305487 -0.000350524 0.0627662 0.115585 0.00257202 0.004 300 0 
47 1 1 -0.00133875 -0.0305444 0.0103855 0 0 0 0.00051575 -8.66994e-05 2.07967e-05 -0.000805866 -1.27804e-05 -0.000388245 0.0294334 0.00817109 -0.0600061 0.004 300 0 
153 1 1 0.00656354 -0.0300239 0.0113667 0 0 0 0.000213967 9.03243e-05 -0.000152587 -0.000572958 -7.75763e-05 -0.000215092 -0.136171 0.127524 -0.0231241 0.004 300 0 
41 1 1 0.0148075 -0.0317915 0.0106527 0 0 0 0.000138494 2.03445e-05 -0.000363299 -0.000106396 0.000404987 0.000303722 -0.0868224 0.0739041 -0.0686314 0.004 300 0 
163 1 1 0.0311563 -0.0339187 0.0111107 0 0 0 -0.000145024 -0.000202255 -3.73106e-05 -0.000413549 0.000117074 0.000437069 0.170499 -0.146899 0.0531728 0.004 300 0 
214 1 1 -0.037502 -0.0268251 0.0107154 0 0 0 0.000131199 -3.45623e-05 -4.75904e-05 -5.68257e-05 -1.62645e-05 0.000143446 -0.00921468 0.0167052 -0.021698 0.004 300 0 
210 1 1 0.0364687 -0.0280979 0.0111117 0 0 0 5.82226e-05 -7.65283e-05 0.000220804 -0.00059485 0.000129138 0.000697959 -0.0849855 0.0977283 -0.0477169 0.004 300 0 
108 1 1 -0.0260972 -0.0246369 0.0109259 0 0 0 0.000336855 -0.000202602 6.6911e-05 -0.000175309 -0.000328026 5.4846e-05 0.00869468 0.0178028 -0.0325647 0.004 300 0 
40 1 1 -0.00551091 -0.0238699 0.0113316 0 0 0 0.000199797 -0.000594681 -0.0003751 -0.000110634 0.000546036 -0.000189878 0.0017047 0.0452097 0.0579312 0.004 300 0 
55 1 1 0.00236274 -0.0232843 0.0108266 0 0 0 7.83716e-05 -2.62884e-05 -0.000497716 1.34019e-05 0.000605727 -0.00052549 0.0621181 0.074541 0.049357 0.004 300 0 
91 1 1 0.0120902 -0.024384 0.0101858 0 0 0 0.000340193 2.94452e-05 -0.000596837 -0.000152388 0.000370417 0.000566819 -0.00823515 0.155469 0.0232427 0.004 300 0 
112 1 1 0.0192804 -0.0205368 0.0105054 0 0 0 -2.44551e-05 -0.000238387 -0.000991555 6.04881e-05 0.00081771 0.000682682 0.0945587 0.027585 -0.0916522 0.004 300 0 
178 1 1 0.031866 -0.0225277 0.0144801 0 0 0 0.000425498 0.000405244 -0.000818361 -0.000583798 -0.00021722 -0.00100882 -0.159568 -0.245592 -0.046963 0.004 300 0 
131 1 1 0.0407758 -0.0214697 0.0110488 0 0 0 0.000229048 -8.43256e-05 -0.000106697 -0.000211882 -0.000310406 0.000193733 -0.0201505 -0.0927907 -0.0257911 0.004 300 0 
160 1 1 -0.0414733 -0.0199365 0.0108144 0 0 0 7.1086e-05 -5.11417e-05 -3.61385e-05 3.4404e-05 -4.93672e-05 4.95134e-05 0.00546038 0.000424042 0.0103169 0.004 300 0 
43 1 1 -0.0361113 -0.0150938 0.0142644 0 0 0 0.000285288 -0.000134855 -8.86593e-05 6.43911e-05 -3.6839e-05 7.86595e-05 0.0653003 0.0202547 -0.007852 0.004 300 0 
4 1 1 -0.0270359 -0.0151154 0.0100737 0 0 0 0.000565507 -0.000226504 -0.000111724 -0.000433554 -0.000139366 -7.35162e-05 -0.0743019 -0.0617899 -0.0683016 0.004 300 0 
104 1 1 -0.0203031 -0.0192302 0.0111972 0 0 0 0.000423218 -0.000365281 1.12723e-05 -0.00057106 -9.62989e-07 -0.000122773 0.0193813 0.0235149 -0.0132404 0.004 300 0 
20 1 1 -0.00745586 -0.0162229 0.0110951 0 0 0 0.000303673 -0.000487209 -0.000385986 -0.000724626 0.000506062 -0.00038477 0.0517993 -0.026497 -0.0371457 0.004 300 0 
45 1 1 0.000826258 -0.0164518 0.0146093 0 0 0 0.000385447 -0.000158798 -0.000222484 -0.000438144 0.000513613 -0.000979729 -0.0174083 0.0290292 -0.0175988 0.004 300 0 
159 1 1 0.0079529 -0.0177054 0.0113509 0 0 0 0.000164326 -0.00018685 -0.000502363 -0.00049387 0.000379849 -0.00013364 0.0013915 0.107247 -0.0135567 0.004 300 0 
136 1 1 0.0347929 -0.016338 0.010466 0 0 0 0.000554952 7.53065e-05 -0.000892091 0.000413297 -0.000461167 -0.00141051 -0.0142358 -0.0188618 0.0655757 0.004 300 0 
177 1 1 -0.0443293 -0.0125252 0.0108183 0 0 0 0.000103218 -5.12797e-05 -3.11204e-05 4.26724e-05 -3.96016e-05 -3.69569e-05 -0.00335926 0.00829669 -0.0202424 0.004 300 0 
139 1 1 -0.0168213 -0.0121096 0.0110431 0 0 0 0.000309582 -0.000238297 -1.61907e-05 -0.000569316 0.00017301 4.33563e-05 0.00627582 -0.028662 0.0565589 0.004 300 0 
211 1 1 -0.00209472 -0.0104159 0.0103103 0 0 0 0.000316733 -0.000241083 -0.000161517 -0.000839773 0.000359839 -0.000452895 0.0164426 0.0152692 0.0494884 0.004 300 0 
54 1 1 0.0149171 -0.0138962 0.0108318 0 0 0 8.8735e-05 -0.000268802 -0.000502101 -9.38197e-05 0.000329603 3.51173e-05 0.112495 -0.110366 0.0181029 0.004 300 0 
84 1 1 0.0232717 -0.011802 0.0106598 0 0 0 0.000182435 -0.00023143 -0.000398216 0.000633681 0.00045174 -0.00062539 0.082908 0.0886035 -0.0277641 0.004 300 0 
180 1 1 0.0438206 -0.0141006 0.0110452 0 0 0 0.000162552 -9.62602e-05 -0.000156928 -0.000644198 -0.00052834 -0.000198686 0.0516901 -0.0509086 0.00970011 0.004 300 0 
103 1 1 0.0174441 -0.00636609 0.0105737 0 0 0 0.000144607 -0.000194295 -0.000176098 -3.79437e-05 4.58863e-05 -0.000667376 -0.0763449 0.0414205 0.0284177 0.004 300 0 
156 1 1 0.0308879 -0.00946275 0.0106312 0 0 0 0.00039756 -8.50202e-05 -0.000869331 0.000810214 0.000176735 -0.00154337 0.0359047 0.143946 0.052079 0.004 300 0 
197 1 1 -0.0457821 -0.00470765 0.0107637 0 0 0 8.24292e-05 -3.01532e-05 -2.98805e-05 5.10404e-05 -2.80261e-05 -4.47823e-06 -0.000268001 -0.0102522 0.00498414 0.004 300 0 
87 1 1 -0.0386046 -0.00379976 0.0141434 0 0 0 7.78354e-05 -0.000113828 -7.81745e-05 0.000190198 -0.000346969 -2.35389e-05 0.0215862 0.0211064 -0.00667798 0.004 300 0 
130 1 1 -0.0313607 -0.00387033 0.0107767 0 0 0 0.000175131 -0.000381768 -0.00011723 0.000217087 -0.00013661 -0.000128479 -0.0140704 -0.0170946 -0.0472466 0.004 300 0 
604 1 1 -0.0224592 -0.000299434 0.0110781 0 0 0 0.000382938 -0.000285828 0.000125498 -0.00013455 0.000175998 -0.000148786 -0.0226751 0.0123562 0.0390439 0.004 300 0 
146 1 1 -0.0155079 -0.00400705 0.0103909 0 0 0 0.000453131 -0.000156614 0.000113071 -0.000189539 0.000202863 -0.000144872 -0.0254981 0.0457827 -0.0102606 0.004 300 0 
57 1 1 -0.00517513 -0.00310618 0.0111948 0 0 0 0.000421229 -0.000224328 -1.85226e-05 -0.000205395 0.000158758 -0.000383406 -0.0148296 0.0658506 -0.00631832 0.004 300 0 
493 1 1 0.0116995 -0.000872978 0.0103652 0 0 0 -0.00029471 -0.000802846 -0.000136817 -0.000800183 -0.000316276 -0.000377525 -0.132737 0.0820472 0.068693 0.004 300 0 
31 1 1 0.0250487 -0.0040547 0.010459 0 0 0 0.000106468 -4.2979e-05 -0.000298571 8.78801e-05 0.000424231 -0.000732743 -0.0029603 -0.061493 -0.0218224 0.004 300 0 
588 1 1 0.0326002 -0.00174773 0.0105434 0 0 0 0.000233494 -0.000109999 -0.000576498 7.17891e-05 0.000656776 -0.000435042 0.0585597 0.1316 -0.00147538 0.004 300 0 
63 1 1 0.045925 -0.00327963 0.0119244 0 0 0 0.000188059 -0.000140722 -0.000511656 -0.000273214 -0.000328566 0.000238308 0.159606 -0.145095 0.0416137 0.004 300 0 
107 1 1 -0.00850333 -0.0452737 0.0176773 0 0 0 0.000441226 -0.000234229 0.000160243 -6.88777e-05 -0.000283005 -0.000158817 0.0433206 -0.0169558 -0.109282 0.004 300 0 
222 1 1 -0.00141762 -0.0418079 0.0171153 0 0 0 0.000573963 -0.000571336 -5.20845e-05 -0.000246247 -0.000128055 -6.31065e-05 -0.0308547 0.0379631 0.0494808 0.004 300 0 
142 1 1 0.00616061 -0.0401402 0.0154198 0 0 0 0.000374357 -0.000217441 -0.0001378 4.72908e-05 0.00073603 -5.31176e-06 -0.104917 0.0119312 0.0548993 0.004 300 0 
172 1 1 0.0116039 -0.0446438 0.0189557 0 0 0 0.000190844 -1.70289e-05 -0.000125321 0.00029242 0.000348282 -2.78723e-05 0.0214647 -0.218727 8.47064e-05 0.004 300 0 
109 1 1 0.0204213 -0.0412794 0.0183141 0 0 0 0.000159302 5.51027e-05 -0.000157876 0.00112323 0.000944899 -0.000404852 0.127515 -0.202823 -0.0875913 0.004 300 0 
150 1 1 -0.0273278 -0.0370826 0.0158761 0 0 0 5.36279e-05 -0.000102376 9.17386e-05 0.000200922 -0.00011951 6.90618e-05 0.0017151 -0.0221297 -0.0221605 0.004 300 0 
38 1 1 -0.0197794 -0.0373714 0.0182808 0 0 0 0.000199758 -0.000272465 0.000292488 0.00024731 -7.99492e-05 0.000101127 0.0207727 0.00396312 0.00810356 0.004 300 0 
199 1 1 -0.0118542 -0.0370297 0.0176506 0 0 0 0.000337124 -0.000464729 0.000338475 0.000217276 0.000329724 -0.000389955 -0.0211779 0.00950934 -0.00148212 0.004 300 0 
93 1 1 0.0137656 -0.0377754 0.0156797 0 0 0 0.000342209 0.000181262 -0.000149855 0.000257709 0.000663477 1.02687e-05 0.0143452 0.0332488 0.0558648 0.004 300 0 
64 1 1 0.0280168 -0.036505 0.0179297 0 0 0 -0.00163341 -0.00104209 -0.000744204 0.000516261 -0.0014654 -0.000594679 -0.107944 -0.263964 -0.261793 0.004 300 0 
22 1 1 -0.0327422 -0.0324224 0.0194579 0 0 0 0.000124441 -2.4408e-05 -2.16005e-05 0.000128227 -7.46189e-05 8.80784e-05 -0.013611 0.00381921 -0.0301107 0.004 300 0 
174 1 1 -0.0224333 -0.0302094 0.0162621 0 0 0 0.000317296 -0.00026329 0.000211007 0.000195012 -0.000227404 1.94922e-05 -0.0307031 -0.0178632 -0.050331 0.004 300 0 
32 1 1 -0.00428384 -0.0343951 0.0166797 0 0 0 0.000420629 -0.00044271 -5.50808e-05 -0.000407167 -0.000181151 -8.24914e-05 0.0714375 0.0597453 -0.0422176 0.004 300 0 
128 1 1 0.00347577 -0.0331354 0.0179973 0 0 0 0.000148002 -0.000499327 5.62407e-05 -0.000840488 0.00021885 0.000114238 0.29237 -0.120937 0.00196917 0.004 300 0 
88 1 1 0.0113704 -0.0304817 0.0177091 0 0 0 -0.000241624 9.3375e-05 -0.000183553 -0.000414988 0.000737205 0.000230189 0.128667 -0.236408 0.0371167 0.004 300 0 
137 1 1 0.0208021 -0.0338203 0.0156287 0 0 0 0.00139384 0.000464761 -0.000325364 -0.00119797 -0.000149664 -0.0010418 -0.0476063 0.203258 -0.214167 0.004 300 0 
154 1 1 0.0339823 -0.0311398 0.0180539 0 0 0 -7.42792e-05 0.0001216 -0.000248945 -0.000831272 -0.00038168 0.000969104 0.0989916 -0.155282 -0.0214951 0.004 300 0 
52 1 1 -0.0319911 -0.0252354 0.0161639 0 0 0 0.000249183 -6.3875e-05 -5.95991e-05 -3.58252e-05 -4.11856e-05 0.000201935 0.0230077 -0.00371434 0.00649153 0.004 300 0 
80 1 1 -0.00960279 -0.0265075 0.0175841 0 0 0 0.000646866 -0.000519323 -0.000135276 0.000180471 1.75892e-06 -0.000326442 -0.152068 0.0446482 0.0491071 0.004 300 0 
125 1 1 -0.00116938 -0.0267013 0.0173755 0 0 0 6.74697e-05 -0.000432939 -1.44679e-05 -0.000235623 0.00027636 -0.000861482 -0.111682 -0.218121 0.0204426 0.004 300 0 
72 1 1 0.0179292 -0.0264331 0.015632 0 0 0 0.000403644 -0.000233062 -0.00112019 -0.000631605 0.000541348 -6.28496e-05 -0.100711 -0.282373 0.533758 0.004 300 0 
34 1 1 0.0269637 -0.0287279 0.0154208 0 0 0 0.000263445 0.00100917 -0.00111149 -0.000663709 -0.000859616 -0.000355049 -0.277371 -0.0047979 -0.257057 0.004 300 0 
218 1 1 -0.0395975 -0.023462 0.0176931 0 0 0 0.000137929 -8.9325e-05 -6.69864e-05 6.83594e-05 -1.04222e-05 0.000215547 -0.0053089 0.0148236 -0.00326464 0.004 300 0 
70 1 1 -0.0247183 -0.0230229 0.0185734 0 0 0 0.00043841 -0.000206672 2.6776e-05 0.000192553 -0.000304786 -5.7828e-05 -0.00193979 -0.0171978 -0.00156881 0.004 300 0 
132 1 1 -0.0171327 -0.0242614 0.0164747 0 0 0 0.000423829 -0.000495136 -7.34631e-05 0.000154912 -0.000157294 -0.000303067 -0.0452131 0.0230278 -0.0237589 0.004 300 0 
196 1 1 0.00716658 -0.0237874 0.0170625 0 0 0 0.000180822 0.000494114 -0.00115014 -0.000598043 -0.000233753 8.44888e-05 -0.284358 -0.0232193 -0.221612 0.004 300 0 
362 1 1 0.024392 -0.0214319 0.0170744 0 0 0 0.000625023 0.00040635 -0.00139488 -0.00110559 0.000259925 -0.00364148 0.285613 0.204981 0.232293 0.004 300 0 
49 1 1 0.0387625 -0.0248033 0.0179789 0 0 0 -8.02867e-05 5.45038e-05 0.000195584 -0.00057908 0.000163808 0.00037041 0.00105237 -0.0524915 0.0467778 0.004 300 0 
173 1 1 -0.0431203 -0.0163106 0.0177152 0 0 0 0.000157557 -9.43889e-05 -4.83502e-05 9.16579e-05 -3.04286e-05 5.17591e-05 0.00581843 0.0148127 -0.0310615 0.004 300 0 
50 1 1 -0.0295078 -0.0167637 0.0182827 0 0 0 0.000403633 -0.000231058 -7.63144e-05 0.000100886 -0.000159333 0.000173856 -0.00391291 -0.0422146 0.0117026 0.004 300 0 
202 1 1 -0.0134618 -0.0172144 0.0161131 0 0 0 0.000469135 -0.000584372 -0.000500203 -0.000269286 0.00018671 -0.000229193 0.0509543 0.0731031 -0.0540605 0.004 300 0 
86 1 1 -0.00524575 -0.0199202 0.0183817 0 0 0 0.000445451 -0.000380997 -0.000459532 -0.000137834 0.000457377 -0.000543498 0.196956 0.0517967 -0.0735649 0.004 300 0 
129 1 1 0.0138626 -0.0196316 0.0162863 0 0 0 0.000300083 9.58774e-05 -0.000825506 -0.000733728 0.000541837 -2.56889e-05 -0.037172 -0.148589 0.120176 0.004 300 0 
82 1 1 0.0291408 -0.0151369 0.0159348 0 0 0 0.000704299 0.000211146 -0.0015549 0.00122695 0.000556007 -0.00347235 -0.174404 0.0263382 -0.296881 0.004 300 0 
1 1 1 0.0424682 -0.0178065 0.0178763 0 0 0 0.00022865 4.676e-05 -0.000244207 0.00062295 -0.000264238 -0.000523232 -0.11928 0.0875359 -0.110736 0.004 300 0 
168 1 1 -0.0224805 -0.0136294 0.0164159 0 0 0 0.000548122 -0.000259606 -4.38328e-06 -0.000283892 -0.000122364 -2.24024e-05 -0.0124887 0.032427 -0.0275083 0.004 300 0 
121 1 1 -0.0051516 -0.012024 0.0174586 0 0 0 0.000521691 -0.000331865 -0.000235738 -0.000452765 0.000233846 7.37795e-05 -0.0898548 0.00735745 0.0974333 0.004 300 0 
28 1 1 0.00814052 -0.0139784 0.0183249 0 0 0 0.000569941 0.000276859 -0.000322178 -0.000235454 0.000699211 -0.00102791 -0.0951195 -0.0325042 -0.0642581 0.004 300 0 
42 1 1 0.0200453 -0.0148141 0.0172669 0 0 0 4.2234e-05 0.000107334 -0.000526582 -0.000758575 0.00169379 -0.00183796 -0.143293 -0.0778497 -0.0879997 0.004 300 0 
60 1 1 0.0376282 -0.0116458 0.0161675 0 0 0 0.000207967 0.000171541 -0.00150089 1.22547e-05 -0.00063042 -0.00106946 0.0321391 -0.210997 -0.103448 0.004 300 0 
135 1 1 -0.0452103 -0.00864331 0.0176858 0 0 0 0.00012681 -3.43979e-05 -3.16524e-05 0.000136899 -3.95934e-05 -4.59036e-06 0.000989708 0.00561553 0.0183823 0.004 300 0 
81 1 1 -0.0376108 -0.00944738 0.0199519 0 0 0 0.00028248 -0.000336257 -8.21418e-05 0.000282493 6.85931e-05 0.000101344 0.0555839 -0.0108294 -0.0662945 0.004 300 0 
190 1 1 -0.030352 -0.00906273 0.016682 0 0 0 0.000266247 -0.000349527 -0.00011508 0.000355817 2.39294e-06 0.000200559 -0.000278206 0.048354 0.0324227 0.004 300 0 
7 1 1 -0.0204514 -0.00598343 0.0162529 0 0 0 0.000518735 -0.000209543 0.000129331 -0.000184384 -1.56769e-05 -0.00035824 0.0367805 -0.0447052 0.0449437 0.004 300 0 
145 1 1 -0.0119887 -0.00832351 0.0160614 0 0 0 0.000673674 -0.000294264 -8.44751e-05 -0.000372605 0.000156592 4.23521e-05 -0.0162428 0.111436 -0.145788 0.004 300 0 
186 1 1 0.00215196 -0.00892651 0.0168523 0 0 0 0.00083628 3.85649e-05 -0.000465417 -0.000975024 0.000324502 -0.000864476 -0.0150225 0.0505952 -0.0427847 0.004 300 0 
56 1 1 0.0144172 -0.00916789 0.0173885 0 0 0 0.000443443 0.000300115 -0.000498094 -0.000668815 0.000472835 -0.00210155 0.0756137 0.0504095 -0.0638593 0.004 300 0 
191 1 1 0.0221381 -0.00719132 0.0170936 0 0 0 0.000387951 -0.000121612 -0.000977476 -0.000416518 0.00147762 -0.00221459 0.195552 0.318463 -0.0219542 0.004 300 0 
208 1 1 0.0315203 -0.00611219 0.0178097 0 0 0 0.000925713 -4.88683e-05 -0.00150254 0.000535968 -0.000675402 -0.00194195 0.0603532 0.0705975 0.116093 0.004 300 0 
92 1 1 0.0451137 -0.00920263 0.017213 0 0 0 6.4703e-05 4.94167e-05 -0.000282299 -8.63579e-05 -0.00032192 -4.70704e-05 -0.165851 -0.0543546 -0.0102268 0.004 300 0 
192 1 1 -0.0460779 -0.000753 0.0176251 0 0 0 5.12306e-05 -3.47691e-05 -3.91419e-05 7.98125e-05 -7.12875e-05 1.02207e-05 -0.000474357 0.00817543 -0.00459916 0.004 300 0 
462 1 1 -0.0271596 -0.00181468 0.0172867 0 0 0 0.000287393 -0.000363535 3.15971e-05 7.29151e-06 2.22154e-05 -0.000140715 0.0370214 -0.0652772 -0.0225757 0.004 300 0 
450 1 1 -0.0128215 -0.000775482 0.0182545 0 0 0 0.000740883 -0.000222336 9.35561e-05 2.87732e-05 -5.79782e-06 -5.31443e-05 0.0439284 -0.00980801 0.169697 0.004 300 0 
111 1 1 -0.00563143 -0.00408618 0.0190562 0 0 0 0.000583193 -0.000108931 8.22982e-05 0.000669332 -3.40292e-05 7.52222e-05 -0.00563551 -0.00263117 -0.212938 0.004 300 0 
622 1 1 0.00100621 -0.00113416 0.0157754 0 0 0 0.000331136 -1.13351e-05 -0.000182581 -0.000511284 0.000213067 -0.000888467 -0.0122538 0.016866 0.196374 0.004 300 0 