ITEM: TIMESTEP
38400
ITEM: NUMBER OF ATOMS
890
ITEM: BOX BOUNDS mm mm mm
-0.05 0.05
-0.05 0.05
0 0.15
ITEM: ATOMS id type type x y z ix iy iz vx vy vz fx fy fz omegax omegay omegaz radius f_Temp[0] f_heatFlux[0] 
59 1 1 -0.000715548 -0.0460982 0.00395597 0 0 0 6.4902e-08 -3.82394e-07 -3.12297e-07 -4.45003e-07 1.0625e-07 8.08993e-09 -2.49686e-05 -7.43291e-05 5.20803e-05 0.004 538.207 0.386122 
170 1 1 -0.0173498 -0.0426414 0.00397301 0 0 0 5.3878e-08 -3.91966e-07 -3.30132e-07 -1.47533e-07 4.95712e-08 5.47463e-09 -5.73827e-05 -1.87511e-05 -2.1945e-05 0.004 414.914 3.54987 
15 1 1 -0.00975016 -0.0449638 0.00393396 0 0 0 3.94267e-08 -4.92389e-07 -2.12747e-07 -3.55196e-07 -4.34669e-08 1.06682e-07 0.000109133 1.18016e-05 -2.7095e-05 0.004 449.822 3.0109 
116 1 1 0.00648761 -0.0428197 0.00395869 0 0 0 2.12892e-07 -2.33968e-07 1.45023e-07 -2.05889e-07 8.08436e-08 -9.82926e-08 0.000107144 3.00031e-05 -3.0705e-05 0.004 608.7 -1.5495 
158 1 1 0.0143627 -0.0437625 0.0038998 0 0 0 6.77916e-08 4.57919e-08 2.3672e-07 -3.94142e-08 -1.25789e-07 -9.49939e-08 8.98731e-06 -2.10065e-05 1.62953e-05 0.004 656.781 -2.65627 
98 1 1 0.0216779 -0.0406527 0.00394261 0 0 0 1.35382e-07 1.51292e-07 2.89382e-07 2.62467e-08 -5.51656e-08 5.20772e-09 -2.24953e-07 1.20893e-05 -1.67751e-05 0.004 698.584 -3.25406 
169 1 1 -0.0244315 -0.0390659 0.00391426 0 0 0 -1.90783e-07 -7.91499e-07 -7.43431e-07 -6.5419e-08 3.47565e-07 3.39676e-07 1.65959e-05 8.80691e-06 -9.90757e-07 0.004 375.28 3.56429 
89 1 1 -0.011812 -0.0369235 0.00395462 0 0 0 1.65346e-07 -7.5322e-07 -5.63095e-07 -3.4171e-07 3.8432e-07 2.75929e-07 0.000149316 1.93743e-05 0.000101163 0.004 440.6 2.72741 
152 1 1 -0.00418342 -0.0390223 0.00390523 0 0 0 4.60787e-07 -8.03528e-07 -7.6931e-07 -4.75953e-07 1.47368e-07 1.71063e-07 7.27854e-05 -1.0739e-06 -0.000142764 0.004 504.065 1.24476 
23 1 1 0.0153483 -0.035882 0.00391129 0 0 0 1.89638e-07 1.08735e-07 6.06263e-07 8.41716e-08 -1.62646e-07 -8.26125e-08 3.47557e-05 4.20288e-05 8.36184e-06 0.004 668.18 -2.82731 
118 1 1 -0.0307533 -0.0342397 0.00392725 0 0 0 -2.74606e-07 -6.78192e-07 -5.40718e-07 1.61413e-08 1.4415e-07 2.04805e-07 0.000102437 -6.52068e-05 2.23795e-05 0.004 345.619 3.28765 
30 1 1 -0.0188787 -0.0333717 0.00395274 0 0 0 -3.80942e-07 -1.47721e-06 -1.17793e-06 -2.38008e-07 6.71709e-07 6.95866e-07 6.74052e-05 -0.000142771 3.29187e-05 0.004 388.963 3.3416 
215 1 1 -0.00603631 -0.0313238 0.00390661 0 0 0 4.48647e-07 -1.14783e-06 -7.42206e-07 -3.67114e-07 2.22323e-07 5.99122e-07 0.000189592 3.67331e-06 0.000240511 0.004 481.903 1.74287 
74 1 1 0.00184141 -0.0338192 0.00390679 0 0 0 5.83008e-07 -1.02258e-06 -2.48416e-07 -1.97681e-07 -1.94716e-07 -6.9128e-08 0.000179852 6.75545e-05 0.000155567 0.004 557.369 -0.144875 
24 1 1 0.00917857 -0.0308342 0.00392034 0 0 0 2.81643e-07 -2.92292e-07 5.70012e-07 2.8055e-08 -1.37347e-07 -6.39246e-08 5.80064e-05 -1.26346e-05 2.26886e-05 0.004 630.585 -1.97243 
198 1 1 0.0259423 -0.0339524 0.00395551 0 0 0 6.0449e-08 2.10395e-07 8.49055e-07 3.38708e-07 -1.62045e-07 3.38353e-07 0.000130296 8.51403e-05 8.47024e-05 0.004 731.41 -3.3293 
161 1 1 0.0335301 -0.0316074 0.00391358 0 0 0 -2.32297e-07 6.27822e-07 7.44391e-07 1.23462e-07 5.64962e-08 1.5464e-07 -3.33719e-05 2.77409e-05 -5.93909e-05 0.004 755.826 -3.00568 
8 1 1 -0.0322699 -0.0264156 0.00398405 0 0 0 -2.82472e-07 -7.56963e-07 -8.38816e-07 -1.42868e-07 1.86619e-07 5.51769e-07 -7.0297e-05 0.000177778 -6.69384e-05 0.004 337.899 2.93385 
12 1 1 -0.0244143 -0.0276959 0.00386438 0 0 0 -5.75047e-07 -1.64859e-06 -1.7289e-06 -6.10684e-08 8.80691e-07 1.01735e-06 0.00021571 -0.000123724 -9.98361e-05 0.004 363.187 3.27991 
188 1 1 -0.0131742 -0.0277762 0.00396588 0 0 0 -1.77095e-07 -1.8448e-06 -1.06488e-06 -3.88575e-07 4.35965e-07 1.06792e-06 0.000167482 -0.000148365 -4.57161e-05 0.004 409.159 3.19658 
77 1 1 -0.000100233 -0.0260809 0.00389416 0 0 0 4.95204e-07 -1.22564e-06 8.15723e-08 -1.95467e-07 -7.48575e-08 -1.26765e-07 0.000223827 0.000107177 -0.000232071 0.004 542.223 0.209403 
113 1 1 0.0165643 -0.0280203 0.00388659 0 0 0 1.1959e-07 2.5449e-08 8.84333e-07 2.97478e-07 -2.61974e-07 1.46544e-09 1.15667e-05 6.13248e-06 1.68628e-05 0.004 685.424 -2.89127 
183 1 1 0.0384541 -0.0253742 0.00393847 0 0 0 -3.49733e-07 5.57818e-07 8.34325e-07 1.39692e-07 1.17203e-07 1.36474e-07 9.54564e-06 7.55696e-05 -5.69513e-05 0.004 772.427 -2.4691 
162 1 1 -0.0396311 -0.023418 0.00390783 0 0 0 -3.78406e-07 -3.34135e-07 -5.76469e-07 -1.87704e-07 -5.36458e-08 3.16147e-07 7.17277e-05 -8.24113e-05 -9.91499e-05 0.004 321.945 2.22511 
53 1 1 -0.027206 -0.0202486 0.00395168 0 0 0 -2.78623e-07 -1.48087e-06 -1.44381e-06 -1.12994e-06 1.12251e-06 7.58092e-07 0.000128589 -0.000208479 9.68591e-06 0.004 347.534 3.04148 
148 1 1 -0.0187584 -0.0220642 0.00393816 0 0 0 -3.53901e-07 -2.41118e-06 -1.43445e-06 9.13168e-08 1.18536e-06 1.20467e-06 0.000399657 -6.09407e-05 4.45586e-05 0.004 386.157 3.40521 
195 1 1 -0.00727816 -0.02155 0.00394566 0 0 0 5.20776e-07 -1.45892e-06 -1.11089e-06 -1.16052e-06 -2.06058e-07 4.82597e-07 0.000250736 0.000141583 6.31797e-05 0.004 466.761 2.23363 
179 1 1 0.0073663 -0.0231031 0.00394274 0 0 0 3.01255e-07 -4.68488e-07 8.69552e-07 6.6444e-08 -6.86771e-08 -1.34897e-07 5.64868e-05 7.52431e-07 7.36369e-05 0.004 629.55 -2.01566 
95 1 1 0.0148506 -0.02031 0.00393211 0 0 0 -3.51028e-07 -8.9138e-09 1.47769e-06 3.73677e-07 -2.43812e-07 1.06782e-07 2.08176e-07 -0.000112727 9.80285e-05 0.004 681.435 -2.83332 
76 1 1 0.0230028 -0.0233057 0.00397473 0 0 0 -4.05024e-07 6.69673e-07 1.26949e-06 5.04831e-07 -3.25154e-08 3.50089e-07 -3.75181e-05 -0.000204182 0.000150892 0.004 736.88 -3.23606 
100 1 1 0.0325586 -0.0200895 0.00388595 0 0 0 -8.48904e-07 1.24948e-06 1.96052e-06 3.17175e-07 2.38495e-07 3.40669e-07 -0.000127831 -4.08473e-05 6.45067e-05 0.004 764.66 -2.68559 
65 1 1 -0.0430742 -0.0162802 0.00393145 0 0 0 -2.54296e-07 -2.26274e-07 -5.3595e-07 -1.33844e-07 -2.27127e-07 3.13981e-07 2.50077e-05 2.38155e-05 1.5467e-05 0.004 315.123 1.78135 
102 1 1 -0.0351583 -0.0155178 0.00394449 0 0 0 -4.33386e-07 -1.14516e-06 -1.68271e-06 -8.14842e-07 6.35271e-07 1.08918e-06 0.000367896 9.35843e-05 -0.000200448 0.004 324.962 2.23585 
213 1 1 -0.0132588 -0.0162738 0.00397365 0 0 0 -3.43337e-07 -1.62528e-06 -8.16179e-07 1.71811e-07 5.80541e-07 7.99936e-07 9.82085e-05 -0.000185999 2.5144e-05 0.004 412.75 3.21394 
10 1 1 0.00114847 -0.0182524 0.00475003 0 0 0 3.98434e-07 -1.35425e-06 -1.03322e-07 -1.90362e-07 -1.92268e-09 5.66159e-08 -0.000155717 -0.00028658 0.000111051 0.004 565.585 -0.479263 
5 1 1 0.00879791 -0.0152553 0.00390316 0 0 0 -5.08056e-07 -2.90322e-07 1.06863e-06 -2.06072e-08 -2.32176e-07 6.59152e-09 -3.06912e-05 -0.000166077 -1.13683e-05 0.004 639.224 -2.16765 
96 1 1 0.0211693 -0.0155242 0.00395652 0 0 0 -1.03105e-06 6.92399e-07 1.71858e-06 3.96375e-07 7.78438e-08 3.63915e-07 -1.49249e-05 -0.000202296 0.000146317 0.004 730.758 -3.09707 
167 1 1 0.0421923 -0.0183683 0.00392112 0 0 0 -5.83951e-07 4.41487e-07 5.11034e-07 7.31357e-09 1.96136e-08 9.97915e-08 -0.000129289 -0.000131029 -2.20886e-06 0.004 784.75 -1.82736 
124 1 1 -0.029011 -0.0104716 0.00394791 0 0 0 -2.87709e-08 -1.65177e-06 -1.86818e-06 -1.89649e-06 1.18135e-06 1.81577e-06 0.000341925 0.000235998 -1.20532e-05 0.004 342.36 2.71329 
220 1 1 -0.0217759 -0.0144543 0.00398045 0 0 0 1.90525e-07 -1.5243e-06 -1.16389e-06 -1.94461e-06 9.39519e-07 4.97992e-07 0.000126041 0.000274393 2.20803e-05 0.004 367.941 3.09094 
144 1 1 -0.00535516 -0.0138038 0.00388181 0 0 0 1.748e-07 -1.57028e-06 -1.11859e-06 -9.49961e-07 -2.5461e-07 2.62607e-07 0.000199336 -2.48014e-05 9.38961e-05 0.004 504.704 0.987475 
26 1 1 0.00255574 -0.0104629 0.00390569 0 0 0 -5.30753e-07 -9.94788e-07 -6.90888e-08 -7.57488e-07 -3.1909e-07 -2.84567e-08 0.000178855 -0.000106118 0.000120098 0.004 570.295 -0.63152 
194 1 1 0.0287352 -0.013103 0.00393081 0 0 0 -1.06191e-06 1.1342e-06 2.1272e-06 6.08594e-07 9.28616e-08 3.66135e-07 -9.18547e-05 -0.000143624 -1.39165e-05 0.004 758.764 -2.79389 
37 1 1 0.0366701 -0.0122308 0.00393305 0 0 0 -1.30446e-06 1.42235e-06 2.31232e-06 1.89894e-07 6.64934e-07 4.01984e-07 -0.000395181 -0.000277832 -1.02084e-06 0.004 779.698 -2.07776 
219 1 1 0.0447285 -0.0108715 0.00390888 0 0 0 -4.42301e-07 2.44403e-07 2.28896e-07 -1.10196e-07 4.71383e-08 2.16814e-08 -0.000127018 -0.00010457 -8.26089e-05 0.004 789.956 -1.45842 
636 1 1 -0.0451997 -0.00864275 0.00391771 0 0 0 9.9327e-09 -2.51137e-07 -2.8302e-07 1.56793e-07 -7.4871e-08 4.01374e-07 3.50114e-05 1.59337e-05 -7.73129e-05 0.004 309.808 1.38667 
39 1 1 -0.0161466 -0.00885108 0.00388991 0 0 0 -2.35623e-07 -1.25434e-06 -1.79789e-06 -1.16296e-06 -1.94774e-07 1.10787e-06 0.000167447 2.31611e-05 -3.46368e-05 0.004 406.991 2.68461 
171 1 1 -0.00395983 -0.00597828 0.00392048 0 0 0 -6.43751e-07 -1.35698e-06 -3.61311e-07 -1.1069e-06 -2.79628e-07 5.17968e-08 0.000156792 -0.000145138 8.53683e-05 0.004 509.777 0.79802 
200 1 1 0.0146298 -0.0098652 0.00396379 0 0 0 -1.07669e-06 2.60481e-07 1.58965e-06 2.37112e-07 -2.03571e-07 2.15481e-07 -6.24924e-05 -0.000187101 0.000179009 0.004 687.676 -2.97854 
21 1 1 0.022252 -0.00762162 0.00394337 0 0 0 -1.34014e-06 8.17045e-07 1.97191e-06 3.74182e-07 3.87838e-08 3.47231e-07 -0.000149581 -0.000282122 -3.68954e-05 0.004 733.491 -3.12321 
17 1 1 0.0298456 -0.00520717 0.00394876 0 0 0 -1.11719e-06 9.6513e-07 2.33559e-06 7.07153e-07 1.73275e-07 1.28565e-07 -0.000120458 -0.00024552 5.07945e-05 0.004 758.605 -2.84506 
477 1 1 -0.0445832 -0.000710815 0.00396286 0 0 0 -1.97882e-07 -3.75988e-07 -1.45504e-07 3.72613e-07 -2.70553e-07 4.41068e-07 4.65211e-05 -6.63046e-05 8.34484e-05 0.004 309.297 1.30473 
140 1 1 -0.0352672 -0.00371827 0.00387249 0 0 0 -7.13344e-07 -8.43494e-07 -1.10263e-06 3.544e-07 -5.14717e-07 1.45317e-06 0.000170394 -6.61681e-05 3.02189e-06 0.004 326.298 2.08386 
119 1 1 -0.0273891 -0.00269834 0.00396392 0 0 0 -5.2858e-07 -1.37697e-06 -1.27653e-06 -5.74285e-07 3.43138e-07 1.32187e-06 0.000173419 0.000134804 -3.41994e-05 0.004 349.73 2.62166 
207 1 1 -0.0194911 -0.00168729 0.00389514 0 0 0 -9.32478e-07 -1.08175e-06 -2.01768e-06 -1.54446e-06 -6.59005e-07 1.71228e-06 4.31061e-05 -0.000190071 0.000145556 0.004 386.792 2.72045 
69 1 1 -0.0111572 -0.00264551 0.0039301 0 0 0 -5.31655e-07 -1.15188e-06 -1.1045e-06 -1.43803e-06 -4.93732e-08 6.13416e-07 0.000101679 -0.00016621 9.34665e-07 0.004 445.12 2.10339 
221 1 1 0.00874804 -0.00448988 0.00393203 0 0 0 -1.43191e-06 -3.41555e-07 9.35046e-07 -4.7592e-07 -4.71548e-07 3.71829e-07 0.000150963 -0.000256811 2.19898e-05 0.004 649.06 -2.41821 
457 1 1 0.0163505 -0.0020806 0.0039593 0 0 0 -1.48714e-06 3.25007e-07 1.41941e-06 1.33483e-07 -3.49262e-07 2.26479e-07 -0.000256061 -0.000269772 -4.18341e-05 0.004 699.513 -3.1209 
155 1 1 0.0378912 -0.00224686 0.00393693 0 0 0 -1.75328e-06 1.2782e-06 2.52074e-06 -1.08855e-07 8.74636e-07 5.68542e-07 -0.000300912 -0.000466472 4.25205e-05 0.004 781.408 -1.87989 
665 1 1 0.0459183 -0.00307627 0.0039426 0 0 0 -9.34189e-07 -1.21809e-07 6.03178e-07 -1.11512e-07 -5.54497e-08 1.93498e-07 0.000200885 -0.000204043 0.000188861 0.004 789.937 -1.42369 
120 1 1 0.00918487 -0.0371091 0.00876936 0 0 0 5.2228e-07 -5.16633e-07 7.37596e-07 -1.27882e-07 -2.36366e-07 -3.46666e-07 6.31664e-05 -3.52677e-06 9.83103e-05 0.004 632.466 -2.1046 
9 1 1 -0.0247147 -0.033359 0.00937624 0 0 0 -1.17552e-06 -1.78964e-06 -1.9905e-06 4.75664e-08 8.89966e-07 9.50438e-07 -7.51788e-05 -7.47044e-05 7.58878e-05 0.004 365.91 3.41821 
101 1 1 -0.0188614 -0.0277191 0.00955149 0 0 0 -1.16396e-06 -2.80942e-06 -2.32521e-06 -5.65912e-07 1.29811e-06 1.67952e-06 -3.59917e-05 -0.000114944 0.000182165 0.004 384.289 3.31875 
48 1 1 0.0221998 -0.0293138 0.00920033 0 0 0 -2.71352e-07 3.78988e-07 1.83015e-06 3.13692e-07 7.87334e-08 4.17986e-07 -0.000155955 -0.000176393 2.10659e-05 0.004 720.487 -3.11677 
75 1 1 0.02936 -0.0261745 0.00787423 0 0 0 -5.49294e-07 1.03775e-06 2.19404e-06 5.01e-07 1.64367e-07 6.47432e-07 0.000186704 -2.3582e-05 0.000119805 0.004 752.477 -2.96441 
46 1 1 -0.0327912 -0.0205809 0.00958351 0 0 0 -1.34185e-06 -2.04473e-06 -3.65248e-06 -2.16802e-07 1.52524e-07 2.26356e-06 -0.000241154 -0.000283366 0.000214267 0.004 335.559 2.6346 
33 1 1 -0.013034 -0.0220249 0.0094957 0 0 0 -2.77404e-07 -2.69437e-06 -2.00768e-06 -6.4112e-07 4.40073e-07 2.11991e-06 1.50426e-05 8.28656e-05 0.00021343 0.004 414.666 3.0344 
11 1 1 0.02689 -0.0187448 0.00924464 0 0 0 -1.74482e-06 1.29747e-06 3.28748e-06 6.68695e-07 2.99798e-07 7.63772e-07 0.000125484 -6.70335e-05 0.000117698 0.004 747.998 -2.96018 
71 1 1 -0.0372751 -0.00954696 0.00876624 0 0 0 -6.65606e-07 -1.15912e-06 -1.61675e-06 -1.15794e-07 -9.30954e-07 1.72439e-06 -9.47947e-05 -1.72347e-05 9.27174e-05 0.004 319.546 1.9123 
62 1 1 -0.0228082 -0.00771373 0.0081404 0 0 0 -3.36237e-07 -1.98783e-06 -2.86197e-06 -1.81001e-06 -5.32882e-07 2.80218e-06 -0.000234862 -6.61901e-05 0.000198547 0.004 368.055 2.89698 
19 1 1 -0.00970671 -0.00905634 0.00849073 0 0 0 -1.0401e-06 -2.91912e-06 -2.42979e-06 -1.81406e-06 -5.71354e-08 6.69666e-07 0.0001782 -0.000357182 4.83427e-05 0.004 470.947 1.56453 
187 1 1 0.00796709 -0.00988206 0.00975754 0 0 0 -5.83881e-06 4.16181e-08 1.57715e-06 -3.25716e-06 -8.17376e-07 3.90981e-07 -0.000272271 -0.00148648 0.000616097 0.004 634.579 -2.45611 
157 1 1 0.0395817 -0.00751949 0.00963113 0 0 0 -2.82448e-06 1.30525e-06 4.28238e-06 -6.14302e-07 7.37411e-07 1.1163e-06 0.000422545 -6.57628e-05 0.000188946 0.004 785.824 -1.70012 
18 1 1 0.00229112 -0.00404903 0.00852647 0 0 0 -1.90386e-06 -1.93008e-06 7.4766e-07 -1.55493e-06 -2.47794e-07 -1.8412e-07 0.000164015 1.44944e-05 0.000182094 0.004 568.465 -0.543138 
185 1 1 -0.00531148 -0.045735 0.0104438 0 0 0 2.64292e-07 -7.52562e-07 -6.32301e-07 -4.66106e-07 1.35085e-07 1.59363e-07 -9.08198e-05 4.46925e-05 1.35443e-05 0.004 497.232 1.56226 
83 1 1 0.00256736 -0.0459473 0.0112661 0 0 0 4.63482e-07 -6.77873e-07 6.00207e-08 -3.76983e-07 -9.73425e-08 -3.80979e-07 -3.59016e-06 -0.000250516 -2.37618e-05 0.004 564.346 -0.338169 
58 1 1 -0.0218568 -0.0405821 0.0112769 0 0 0 -7.30528e-07 -1.07617e-06 -9.16325e-07 -5.79594e-08 4.97096e-07 5.56458e-07 -8.92043e-05 -7.74921e-05 3.79459e-06 0.004 380.233 3.52819 
105 1 1 -0.013586 -0.043966 0.0108788 0 0 0 5.25659e-07 -5.55931e-07 -5.34882e-07 -7.49486e-07 1.12482e-07 -1.42672e-07 -7.46476e-05 0.000199747 -0.000214551 0.004 427.93 3.77666 
223 1 1 0.0103957 -0.0448674 0.0106706 0 0 0 4.65765e-07 -3.11965e-07 6.74017e-07 -2.79221e-07 -1.69185e-07 -3.10123e-07 0.000146535 0.000152034 -1.05755e-05 0.004 625.383 -1.94835 
217 1 1 0.0179432 -0.0424253 0.0108281 0 0 0 5.96348e-08 1.20426e-07 5.30146e-07 -1.56578e-07 -1.23723e-07 -8.69117e-08 5.69214e-05 5.34528e-05 5.11319e-05 0.004 674.528 -2.95749 
6 1 1 -0.0162615 -0.0350311 0.0113114 0 0 0 -2.6614e-07 -2.44813e-06 -2.41836e-06 -8.87907e-07 9.77908e-07 1.36539e-06 -1.6182e-05 0.000452377 -0.000257236 0.004 406.775 3.19959 
151 1 1 -0.00801307 -0.0382603 0.0108115 0 0 0 6.60779e-07 -1.80295e-06 -1.50458e-06 -1.19703e-06 3.64282e-07 7.45678e-07 9.44025e-05 6.84322e-05 2.09588e-06 0.004 466.836 2.26143 
2 1 1 0.000443929 -0.038308 0.010271 0 0 0 8.3383e-07 -1.88497e-06 -6.20473e-07 -6.33128e-07 -2.32697e-07 -1.61365e-07 6.23785e-05 -4.61843e-05 -4.3383e-05 0.004 549.152 0.0590518 
117 1 1 0.0249196 -0.0387267 0.0109176 0 0 0 -3.84546e-07 5.70736e-07 9.07994e-07 -2.46381e-08 1.08317e-07 6.54447e-08 9.97087e-05 -0.000112433 0.000124116 0.004 718.154 -3.32188 
13 1 1 -0.0323455 -0.0327547 0.011537 0 0 0 -9.50795e-07 -1.1926e-06 -1.55036e-06 6.67117e-08 4.51254e-07 5.44741e-07 -0.000134147 -3.76609e-05 -1.04327e-05 0.004 344.188 3.11077 
193 1 1 -0.00982578 -0.0305006 0.0107685 0 0 0 -5.14433e-07 -2.79289e-06 -2.71713e-06 -8.16343e-07 5.55606e-07 1.7903e-06 -0.000140882 -0.000399269 0.000266095 0.004 456.999 2.2818 
47 1 1 -0.00133756 -0.0305434 0.0103848 0 0 0 1.80498e-08 -2.41411e-06 -4.98766e-07 -7.11301e-07 -2.11062e-07 -1.45278e-07 -8.45335e-06 -0.000182058 0.000288857 0.004 537.358 0.345178 
153 1 1 0.00656464 -0.0300231 0.0113662 0 0 0 2.96599e-08 -1.10093e-06 1.13447e-06 -4.80614e-07 -4.1129e-07 -3.69338e-07 8.30743e-05 -0.000157656 4.05631e-05 0.004 608.088 -1.49046 
41 1 1 0.0148076 -0.0317915 0.010654 0 0 0 1.74852e-07 2.307e-07 1.82657e-06 6.54034e-08 -2.81022e-07 -1.62014e-07 5.60276e-05 2.04293e-05 3.28873e-05 0.004 673.705 -2.84549 
163 1 1 0.0311565 -0.0339183 0.0111114 0 0 0 -5.80734e-07 9.64387e-07 1.59347e-06 2.70742e-08 2.36678e-07 1.98978e-07 0.000105765 0.000102789 -7.44491e-05 0.004 751.056 -3.04278 
214 1 1 -0.0375015 -0.0268265 0.010714 0 0 0 -7.22364e-07 -1.18189e-06 -1.86682e-06 -7.26505e-08 1.3935e-07 6.79389e-07 -5.61101e-05 0.000395042 -0.000188625 0.004 329.804 2.53392 
210 1 1 0.0364694 -0.0280971 0.0111135 0 0 0 -7.44721e-07 8.43248e-07 1.73233e-06 1.70256e-07 2.01406e-07 3.87858e-07 0.000104875 9.48749e-05 2.49029e-05 0.004 771.285 -2.47262 
108 1 1 -0.0260915 -0.0246404 0.0109304 0 0 0 -1.40499e-06 -3.13751e-06 -3.03033e-06 -2.7456e-07 1.29286e-06 1.90157e-06 0.000170664 -0.000111161 -0.000294561 0.004 355.874 3.03106 
40 1 1 -0.00551111 -0.0238697 0.0113285 0 0 0 -6.10274e-07 -2.91446e-06 -1.6541e-06 -9.56513e-07 -1.52691e-07 8.0374e-07 2.01349e-05 -0.000339884 -0.000248037 0.004 492.745 1.38294 
55 1 1 0.0023621 -0.0232851 0.0108249 0 0 0 -4.54015e-07 -2.35864e-06 8.218e-07 -5.19838e-07 -2.72165e-07 -5.05892e-07 8.43127e-05 -0.000402407 0.00026698 0.004 575.694 -0.655789 
91 1 1 0.0120918 -0.0243837 0.0101856 0 0 0 -2.74588e-07 4.80177e-08 2.20486e-06 -2.82038e-08 -2.91478e-07 -9.08952e-08 2.9919e-05 -0.000197963 0.000147961 0.004 657.147 -2.55586 
112 1 1 0.0192794 -0.0205361 0.0105073 0 0 0 -1.61784e-06 1.00144e-06 3.89241e-06 4.83648e-07 -3.55868e-07 3.80866e-07 -0.000250025 1.29032e-05 6.87803e-05 0.004 705.132 -3.1425 
178 1 1 0.0318658 -0.0225254 0.0144788 0 0 0 -2.50422e-06 1.15166e-06 3.94015e-06 5.52794e-07 4.37952e-07 7.78337e-07 -6.65246e-05 -0.000221303 0.000100592 0.004 766.12 -2.63051 
131 1 1 0.0407765 -0.0214683 0.0110513 0 0 0 -1.04273e-06 9.53727e-07 1.55715e-06 1.35232e-07 6.92397e-08 3.18697e-07 8.91852e-05 0.00020633 -2.73544e-05 0.004 781.179 -2.01135 
160 1 1 -0.0414721 -0.0199398 0.0108131 0 0 0 -9.47626e-07 -6.29622e-07 -1.17832e-06 -1.00173e-07 -5.3092e-08 7.99477e-07 6.40933e-05 -0.000182533 4.49007e-05 0.004 317.409 1.9248 
43 1 1 -0.0361086 -0.0151005 0.0142598 0 0 0 -1.71927e-06 -2.72174e-06 -4.35011e-06 -8.31416e-08 -7.06314e-08 3.2466e-06 0.00067826 0.000176395 -0.00050594 0.004 324.915 2.12448 
4 1 1 -0.0270342 -0.0151184 0.010074 0 0 0 -7.09374e-07 -3.19057e-06 -4.63315e-06 -2.28492e-06 1.32426e-06 3.696e-06 -4.50647e-05 0.000178841 -0.000560303 0.004 350.607 2.90817 
104 1 1 -0.020301 -0.0192302 0.0111977 0 0 0 -1.37035e-06 -4.05647e-06 -3.99935e-06 -1.00173e-06 1.92136e-06 2.64701e-06 -0.000504682 -0.000107982 0.000213584 0.004 379.397 3.09351 
20 1 1 -0.00745478 -0.0162218 0.0110955 0 0 0 -7.69315e-07 -3.28969e-06 -2.55394e-06 -1.8259e-06 -2.30906e-07 6.52286e-07 5.39228e-05 -0.000490607 0.000363814 0.004 485.618 1.38751 
45 1 1 0.000825081 -0.0164513 0.0146047 0 0 0 -3.09437e-06 -3.35902e-06 3.78398e-07 -1.35189e-06 -1.10518e-07 -7.41289e-07 0.000230605 -0.000608196 -1.25301e-05 0.004 557.783 -0.257749 
159 1 1 0.00795161 -0.0177076 0.011347 0 0 0 -1.88644e-06 -8.11002e-07 2.59131e-06 -4.09601e-07 -2.82533e-07 -4.12983e-07 0.00018054 -0.000124329 0.000347949 0.004 632.606 -2.0106 
136 1 1 0.0347931 -0.0163371 0.0104655 0 0 0 -2.36399e-06 1.60319e-06 4.03883e-06 6.67139e-07 3.63288e-07 7.49343e-07 0.000317842 -6.4916e-05 0.000131228 0.004 773.14 -2.34003 
177 1 1 -0.0443274 -0.0125289 0.0108104 0 0 0 -4.87325e-07 -5.01291e-07 -7.45148e-07 3.46575e-08 5.52634e-08 7.87022e-07 2.95504e-05 2.77223e-05 -0.000134547 0.004 313.004 1.59728 
139 1 1 -0.0168209 -0.0121092 0.0110438 0 0 0 -1.16293e-06 -4.23656e-06 -4.57088e-06 -1.49851e-06 1.03922e-06 3.10703e-06 0.000689484 4.96098e-06 -0.000416533 0.004 399.334 2.76764 
211 1 1 -0.00209537 -0.0104148 0.0103075 0 0 0 -1.32779e-06 -2.6258e-06 -3.04567e-07 -1.77468e-06 -1.75837e-07 -3.62814e-07 0.000109646 -0.000224666 3.77973e-05 0.004 529.515 0.362891 
54 1 1 0.0149155 -0.0138957 0.0108309 0 0 0 -2.32296e-06 7.13652e-07 3.31395e-06 3.18957e-07 -4.714e-07 -6.46854e-08 -0.000101623 -0.000122792 4.25847e-05 0.004 686.986 -3.03313 
84 1 1 0.023272 -0.0118009 0.0106602 0 0 0 -2.91319e-06 1.24416e-06 4.15431e-06 7.97762e-07 2.70367e-07 5.71917e-07 -3.57664e-05 -7.08275e-05 5.48064e-05 0.004 737.464 -3.0671 
180 1 1 0.0438204 -0.0140997 0.0110465 0 0 0 -1.21086e-06 9.3277e-07 1.46534e-06 -2.37002e-07 2.67899e-07 2.39899e-07 1.42851e-05 8.32842e-05 8.42218e-06 0.004 788.384 -1.56274 
103 1 1 0.0174441 -0.0063656 0.0105707 0 0 0 -2.97675e-06 7.20693e-07 3.8878e-06 3.27357e-07 -2.33605e-07 3.14947e-07 9.24855e-05 -5.13438e-05 0.000105807 0.004 705.235 -3.06936 
156 1 1 0.0308891 -0.00946111 0.0106299 0 0 0 -2.94451e-06 1.61092e-06 4.87195e-06 1.00832e-06 5.48668e-07 6.79185e-07 1.61236e-05 -0.000311215 1.98368e-05 0.004 761.635 -2.66296 
197 1 1 -0.0457831 -0.0047112 0.0107571 0 0 0 -6.20253e-07 -4.27375e-07 -4.93546e-07 6.18638e-07 -1.35821e-07 1.10585e-06 -4.67654e-06 -0.000190279 8.45482e-05 0.004 309.822 1.35365 
87 1 1 -0.0386059 -0.00381154 0.0141381 0 0 0 1.70302e-07 -1.79423e-06 -1.16745e-06 2.82258e-07 4.20152e-07 2.68523e-06 0.000106449 0.000425674 -0.000188372 0.004 315.476 1.65964 
130 1 1 -0.0313597 -0.00387383 0.0107775 0 0 0 -1.3378e-06 -2.04093e-06 -2.3494e-06 1.13698e-06 -1.98657e-07 3.18516e-06 0.000286501 -0.000137706 0.000139301 0.004 331.28 2.25471 
604 1 1 -0.0224595 -0.000300853 0.0110795 0 0 0 -3.02414e-06 -2.92122e-06 -3.91962e-06 -1.5183e-06 -1.21072e-07 3.53049e-06 0.000568502 -0.000188436 -7.94606e-05 0.004 374.484 2.65299 
146 1 1 -0.0155078 -0.00400725 0.0103913 0 0 0 -2.53059e-06 -3.41231e-06 -4.10934e-06 -1.50679e-06 2.5208e-07 2.16285e-06 0.000630244 -0.000487999 -1.53851e-06 0.004 418.729 2.34754 
57 1 1 -0.00517521 -0.00310605 0.0111954 0 0 0 -2.42618e-06 -3.12216e-06 -5.37076e-07 -2.14154e-06 4.15211e-07 -6.49365e-07 0.0001869 -0.000229426 0.000124966 0.004 509.279 0.825591 
493 1 1 0.0116957 -0.000875026 0.0103666 0 0 0 -3.33507e-06 -2.32945e-07 3.19699e-06 -4.55536e-07 -5.55239e-07 -1.15047e-07 -0.000248271 -0.000350243 -1.06738e-05 0.004 667.288 -2.5904 
31 1 1 0.0250484 -0.00405415 0.0104601 0 0 0 -3.12663e-06 1.38944e-06 4.21069e-06 5.47858e-07 2.69325e-07 5.42576e-07 -7.17383e-05 -0.000107497 1.8353e-05 0.004 739.966 -2.93495 
588 1 1 0.0325999 -0.00174523 0.0105431 0 0 0 -2.86205e-06 1.73439e-06 4.45642e-06 4.32453e-07 7.44134e-07 3.21975e-07 -6.48603e-05 -0.000210457 3.45474e-05 0.004 762.918 -2.51684 
63 1 1 0.045924 -0.00327879 0.0119253 0 0 0 -1.58321e-06 7.50968e-07 2.18407e-06 -1.09228e-07 2.82758e-07 4.1973e-07 -0.000569095 0.000442211 -0.00026589 0.004 788.785 -1.47716 
107 1 1 -0.00850633 -0.045273 0.017677 0 0 0 -2.73957e-10 -1.02148e-06 -4.84581e-07 -4.57609e-07 6.00305e-07 4.63765e-07 5.80851e-05 -1.01539e-05 -7.95426e-05 0.004 481.206 1.81082 
222 1 1 -0.00141959 -0.0418101 0.0171129 0 0 0 1.78657e-07 -1.75524e-06 -6.54494e-07 -9.02607e-07 3.19563e-07 1.90396e-07 -0.000166954 -0.000101705 3.06999e-05 0.004 541.147 0.283359 
142 1 1 0.00615864 -0.0401388 0.0154212 0 0 0 2.28416e-07 -9.23358e-07 5.03546e-07 -7.13331e-07 -2.65605e-07 -4.97893e-07 -0.000107781 -0.000242885 0.000250881 0.004 598.139 -1.24221 
172 1 1 0.0116014 -0.0446446 0.0189547 0 0 0 3.35631e-07 -7.58969e-08 8.78464e-07 -6.42576e-07 -1.11858e-07 -5.00037e-07 0.000158465 0.000105497 -4.8966e-05 0.004 635.218 -2.20574 
109 1 1 0.0204197 -0.0412797 0.0183142 0 0 0 4.80188e-08 1.28508e-08 1.08285e-06 -1.16673e-07 -1.99179e-07 -4.74531e-07 0.000190419 -8.41104e-05 3.24528e-05 0.004 700.458 -3.51886 
150 1 1 -0.0273271 -0.0370832 0.0158763 0 0 0 -1.03513e-06 -8.28601e-07 -1.28638e-06 4.54996e-08 6.62043e-07 7.64816e-07 -0.000164902 4.73322e-05 -2.20549e-05 0.004 361.079 3.34411 
38 1 1 -0.0197787 -0.0373719 0.0182823 0 0 0 -1.17902e-06 -2.13867e-06 -3.17247e-06 -3.46933e-07 1.25758e-06 1.95819e-06 -0.00021169 0.000337813 -0.000140255 0.004 392.997 3.29555 
199 1 1 -0.0118545 -0.0370266 0.01765 0 0 0 -1.21993e-06 -3.26258e-06 -2.69146e-06 -7.48124e-07 1.37802e-06 2.03769e-06 0.000214096 -0.000613292 -4.01574e-05 0.004 430.117 2.8794 
93 1 1 0.0137643 -0.0377759 0.0156807 0 0 0 2.01584e-07 6.75335e-08 1.67733e-06 -5.51011e-07 -2.63883e-07 -4.94438e-07 7.70219e-05 5.66951e-05 -3.49268e-05 0.004 657.446 -2.64214 
64 1 1 0.0280177 -0.0365092 0.0179286 0 0 0 -2.85371e-07 2.19606e-07 2.04797e-06 7.93366e-08 3.22173e-07 2.02029e-07 0.000301059 0.000187561 6.57865e-06 0.004 743.558 -3.44101 
22 1 1 -0.0327402 -0.032422 0.0194567 0 0 0 -1.04689e-06 -1.20414e-06 -1.78797e-06 4.55995e-07 4.77523e-07 1.11088e-06 -0.000103947 0.000245457 -5.73511e-05 0.004 340.731 2.91654 
174 1 1 -0.0224319 -0.0302105 0.0162617 0 0 0 -1.97043e-06 -2.97521e-06 -3.43236e-06 -3.28438e-07 1.42134e-06 2.13807e-06 6.10405e-05 0.000147261 0.000134781 0.004 378.154 3.26283 
32 1 1 -0.00428308 -0.0343967 0.0166775 0 0 0 -1.22178e-06 -2.89131e-06 -1.75307e-06 -1.43301e-06 5.17832e-07 7.38814e-07 5.91622e-05 -0.000521042 0.000272388 0.004 511.875 1.02469 
128 1 1 0.00347462 -0.033132 0.0179959 0 0 0 -1.67286e-06 -1.89788e-06 2.23244e-07 -1.1678e-06 -3.85552e-07 -6.28309e-07 0.000147035 -0.000256821 0.000126048 0.004 573.068 -0.627021 
88 1 1 0.0113687 -0.0304834 0.0177099 0 0 0 -8.91901e-07 -6.6235e-07 2.80253e-06 -5.49309e-07 7.23173e-08 -6.56467e-07 0.000123809 -0.000192248 0.000248491 0.004 654.127 -2.492 
137 1 1 0.0208047 -0.0338186 0.0156334 0 0 0 1.69076e-08 5.98465e-07 2.51575e-06 -5.44292e-07 -2.83095e-07 -8.91263e-08 0.000184312 0.000424242 -0.000127836 0.004 715.257 -3.50893 
154 1 1 0.0339821 -0.0311387 0.0180551 0 0 0 -9.01485e-07 9.00127e-07 2.26756e-06 1.34539e-07 3.56274e-07 4.62849e-07 0.000130906 0.000183249 -2.26773e-05 0.004 767.607 -2.58255 
52 1 1 -0.031991 -0.0252343 0.0161625 0 0 0 -1.65765e-06 -2.23087e-06 -3.98226e-06 -1.71691e-07 1.17469e-06 2.47733e-06 -0.000233549 -0.000181668 -2.91669e-05 0.004 338.035 2.66546 
80 1 1 -0.00960096 -0.0265066 0.0175805 0 0 0 -3.7741e-06 -3.68322e-06 -3.40201e-06 -1.29309e-06 1.3138e-06 2.54079e-06 0.000240822 -0.000409648 0.000136039 0.004 457.749 2.08146 
125 1 1 -0.0011736 -0.0267001 0.0173742 0 0 0 -3.06923e-06 -3.23758e-06 -2.07088e-07 -1.15955e-06 -3.33922e-07 -4.17711e-07 0.000186111 -0.000454019 0.000355268 0.004 537.361 0.310225 
72 1 1 0.0179273 -0.0264316 0.015637 0 0 0 -1.01005e-06 9.22939e-07 4.58055e-06 -4.59824e-07 -4.31886e-07 2.06038e-07 0.00021858 -0.000236196 0.000295208 0.004 697.245 -3.21701 
34 1 1 0.0269647 -0.0287251 0.0154182 0 0 0 -1.74807e-06 9.46553e-07 3.50645e-06 3.85254e-07 5.90053e-07 6.77701e-07 0.000198875 -0.000172893 0.000261812 0.004 749.401 -2.94879 
218 1 1 -0.0395968 -0.0234663 0.0176916 0 0 0 -1.13548e-06 -1.3451e-06 -2.65488e-06 -4.86527e-08 2.86007e-07 1.22161e-06 2.75515e-05 0.000388666 -0.000187093 0.004 320.493 2.04584 
70 1 1 -0.0247175 -0.0230258 0.0185785 0 0 0 -2.57113e-06 -3.51206e-06 -4.48551e-06 -6.24217e-07 1.63992e-06 3.80697e-06 -0.000232614 -9.42908e-05 2.0199e-05 0.004 361.142 2.87587 
132 1 1 -0.0171323 -0.0242635 0.0164744 0 0 0 -2.52179e-06 -3.71342e-06 -3.80916e-06 -1.17891e-06 1.61132e-06 2.91427e-06 8.37491e-05 -6.61961e-05 -0.000130331 0.004 398.243 2.93571 
196 1 1 0.00716653 -0.023789 0.0170602 0 0 0 -2.87176e-06 -1.717e-06 3.22484e-06 -8.76917e-07 -2.44839e-07 -7.90982e-07 0.000113353 -0.000267687 0.000313619 0.004 628.501 -1.86783 
362 1 1 0.0243874 -0.0214292 0.0170617 0 0 0 -3.81069e-06 1.12975e-06 5.7847e-06 8.93037e-07 7.32164e-07 8.78996e-07 0.000251717 0.000184828 0.000106671 0.004 748.365 -2.94271 
49 1 1 0.0387627 -0.0248027 0.0179815 0 0 0 -1.13324e-06 9.10445e-07 2.077e-06 2.21379e-07 2.52889e-07 5.16288e-07 -4.19304e-05 -7.06487e-06 3.61333e-05 0.004 778.549 -2.1619 
173 1 1 -0.0431191 -0.0163148 0.0177078 0 0 0 -6.63762e-07 -1.02111e-06 -2.04947e-06 -2.5927e-07 3.78401e-07 1.67032e-06 9.9494e-05 0.000514876 -0.000293587 0.004 316.315 1.73839 
50 1 1 -0.0295064 -0.0167659 0.0182811 0 0 0 -2.3909e-06 -4.12661e-06 -6.73784e-06 -4.22782e-07 2.04087e-06 6.12432e-06 -0.000616376 8.86487e-05 6.75372e-05 0.004 340.12 2.45081 
202 1 1 -0.0134618 -0.0172167 0.0161107 0 0 0 -2.84196e-06 -4.71104e-06 -5.17953e-06 -1.12855e-06 6.56077e-07 3.15186e-06 -0.000523224 -0.000413045 0.000357985 0.004 428.491 2.39001 
86 1 1 -0.00524863 -0.0199157 0.0183757 0 0 0 -4.99722e-06 -3.68587e-06 -2.4256e-06 -1.07783e-06 5.53396e-07 1.18393e-06 -0.000278939 -0.000364774 7.28947e-05 0.004 505.784 1.0196 
129 1 1 0.0138597 -0.0196295 0.016286 0 0 0 -3.34864e-06 2.93609e-07 4.5562e-06 -1.24722e-07 4.32625e-08 -3.58695e-07 0.000103035 -0.000454142 0.000287543 0.004 678.327 -2.74942 
82 1 1 0.0291401 -0.0151359 0.0159325 0 0 0 -3.86653e-06 1.52369e-06 5.82782e-06 7.92098e-07 8.70334e-07 1.08692e-06 2.09207e-05 -0.000159258 6.63453e-05 0.004 762.216 -2.65071 
1 1 1 0.0424683 -0.0178049 0.0178803 0 0 0 -1.64364e-06 9.39183e-07 2.03813e-06 8.33364e-08 2.50827e-07 4.1515e-07 1.69577e-05 -6.10779e-05 1.92456e-05 0.004 784.88 -1.76931 
168 1 1 -0.0224798 -0.0136304 0.0164169 0 0 0 -2.2311e-06 -4.51829e-06 -6.88804e-06 -1.01945e-06 1.60342e-06 4.76159e-06 -1.84167e-05 -0.000244565 -3.63995e-05 0.004 371.531 2.82866 
121 1 1 -0.00514894 -0.0120184 0.0174569 0 0 0 -3.77906e-06 -3.33134e-06 -1.64913e-06 -1.83458e-06 2.85865e-07 -3.4486e-07 0.000218338 -0.000495947 -0.000268544 0.004 513.201 0.755626 
28 1 1 0.00814313 -0.0139813 0.0183177 0 0 0 -4.21331e-06 -1.8377e-06 5.1159e-06 -1.44332e-06 6.74223e-07 -1.29511e-06 0.000113923 -0.000373231 0.00014438 0.004 637.249 -2.10854 
42 1 1 0.0200408 -0.0148104 0.017266 0 0 0 -4.51176e-06 1.50397e-06 6.84103e-06 4.51427e-07 4.54203e-07 3.24777e-07 1.72863e-05 -0.000243692 2.97216e-05 0.004 722.824 -2.99423 