ITEM: TIMESTEP
40000
ITEM: NUMBER OF ATOMS
890
ITEM: BOX BOUNDS mm mm mm
-0.05 0.05
-0.05 0.05
0 0.15
ITEM: ATOMS id type type x y z ix iy iz vx vy vz fx fy fz omegax omegay omegaz radius f_Temp[0] f_heatFlux[0] 
59 1 1 -0.00071555 -0.0460982 0.00395598 0 0 0 2.18556e-07 -6.94797e-08 2.26549e-07 2.48661e-07 -1.04702e-07 -5.17924e-08 4.82555e-05 4.83167e-05 -3.05483e-05 0.004 538.892 0.349819 
170 1 1 -0.0173498 -0.0426414 0.00397301 0 0 0 4.89042e-07 6.28761e-08 2.46248e-07 2.04612e-07 4.73684e-08 5.19409e-08 4.64226e-06 2.10194e-05 -5.18438e-05 0.004 421.24 3.24008 
15 1 1 -0.00975016 -0.0449638 0.00393397 0 0 0 3.46577e-07 1.75059e-07 2.32911e-07 3.13232e-07 9.3826e-08 -1.23059e-07 -5.34598e-05 4.12182e-05 4.00949e-05 0.004 455.15 2.71019 
116 1 1 0.00648761 -0.0428197 0.00395869 0 0 0 2.7589e-07 7.00903e-08 3.47931e-07 1.88087e-07 -2.40969e-07 -1.87998e-07 6.66466e-05 2.89918e-05 3.08707e-05 0.004 605.973 -1.38034 
158 1 1 0.0143627 -0.0437625 0.00389981 0 0 0 1.20624e-07 6.00717e-08 1.54549e-07 1.68109e-07 -1.78216e-07 -1.96591e-07 -5.91552e-06 1.68181e-05 -5.2451e-05 0.004 652.08 -2.39268 
98 1 1 0.0216779 -0.0406527 0.00394261 0 0 0 2.60527e-07 -6.50837e-08 -1.39415e-08 1.007e-07 -2.02545e-07 -1.50783e-07 4.91897e-07 1.92592e-05 -2.73772e-05 0.004 692.767 -2.98985 
169 1 1 -0.0244315 -0.0390659 0.00391427 0 0 0 6.33828e-07 2.09531e-07 4.49732e-07 2.15485e-07 -3.00146e-08 -9.65649e-08 1.43693e-05 6.43234e-05 -5.69189e-05 0.004 381.728 3.35164 
89 1 1 -0.011812 -0.0369235 0.00395462 0 0 0 8.66661e-07 1.48058e-07 5.63136e-07 2.96548e-07 -1.63642e-07 -1.20923e-07 -9.36851e-05 -5.63879e-05 0.000100383 0.004 445.462 2.49219 
152 1 1 -0.00418342 -0.0390223 0.00390524 0 0 0 8.84122e-07 8.86653e-08 8.29562e-07 3.48852e-07 -8.69972e-08 -2.45882e-07 2.4163e-05 0.000104439 -0.000171964 0.004 506.272 1.12468 
23 1 1 0.0153483 -0.035882 0.00391129 0 0 0 6.21429e-07 -1.03815e-07 2.32474e-07 2.68309e-07 -4.14158e-07 -3.48622e-07 2.97406e-05 0.000120854 -3.65212e-05 0.004 663.165 -2.55814 
118 1 1 -0.0307533 -0.0342397 0.00392725 0 0 0 6.70781e-07 1.43866e-07 4.15137e-07 2.57934e-07 -3.14874e-08 -2.6265e-08 -7.14886e-07 0.000134506 -4.51139e-05 0.004 351.677 3.20534 
30 1 1 -0.0188787 -0.0333717 0.00395275 0 0 0 1.38472e-06 -1.09483e-07 5.89875e-07 3.98752e-07 -1.32509e-07 -2.4621e-07 5.84021e-05 0.00022432 -9.11837e-05 0.004 394.985 3.11917 
215 1 1 -0.00603632 -0.0313238 0.00390661 0 0 0 1.17477e-06 2.9494e-07 9.42794e-07 7.30646e-07 -1.50331e-07 -2.31673e-07 -9.70541e-06 2.99396e-05 0.000127199 0.004 484.988 1.57086 
74 1 1 0.0018414 -0.0338192 0.0039068 0 0 0 1.11775e-06 -3.13328e-07 8.25327e-07 4.95602e-07 -2.29966e-07 -2.36392e-07 9.57969e-05 0.000169546 5.93816e-05 0.004 557.111 -0.131283 
24 1 1 0.00917856 -0.0308342 0.00392035 0 0 0 1.20782e-06 -5.42131e-08 8.51867e-07 4.90394e-07 -3.92169e-07 -2.2253e-07 4.08019e-05 0.000195716 -3.65313e-05 0.004 627.095 -1.77591 
198 1 1 0.0259423 -0.0339524 0.00395551 0 0 0 7.4134e-07 -1.93099e-07 1.09583e-07 3.47739e-07 -4.41442e-07 -1.76467e-07 9.80128e-05 0.000179914 -8.0795e-05 0.004 725.38 -3.13991 
161 1 1 0.0335301 -0.0316074 0.00391358 0 0 0 3.16922e-07 -9.07164e-08 -9.03893e-08 1.48447e-07 -4.00798e-07 -1.50216e-07 4.2308e-06 1.83255e-05 2.89015e-06 0.004 750.288 -2.93072 
8 1 1 -0.0322699 -0.0264156 0.00398405 0 0 0 1.08322e-06 2.24405e-07 7.01271e-07 4.19796e-07 2.74277e-08 -6.71362e-08 2.83825e-05 -0.000169677 -4.87238e-05 0.004 343.344 2.90094 
12 1 1 -0.0244143 -0.0276959 0.00386439 0 0 0 1.87584e-06 1.98781e-07 1.20316e-06 5.88703e-07 4.43961e-08 -2.32411e-07 -0.000144862 0.000278885 -2.63677e-05 0.004 369.154 3.11935 
188 1 1 -0.0131742 -0.0277762 0.00396589 0 0 0 1.94486e-06 -5.81006e-07 2.08383e-07 7.29572e-07 -1.92711e-07 -3.45673e-07 7.53137e-05 0.000256361 -0.00011718 0.004 414.87 2.93313 
77 1 1 -0.000100245 -0.0260809 0.00389417 0 0 0 2.66499e-06 -1.28187e-07 1.20035e-06 1.03877e-06 -1.35268e-07 -2.04691e-07 8.28966e-05 0.000526097 -0.000474933 0.004 542.59 0.184714 
113 1 1 0.0165643 -0.0280203 0.0038866 0 0 0 1.25543e-06 -3.37372e-07 2.389e-07 4.92612e-07 -5.48275e-07 -2.79004e-07 5.55992e-05 0.000168277 -0.000132319 0.004 680.257 -2.6548 
183 1 1 0.0384541 -0.0253742 0.00393848 0 0 0 3.3854e-07 -8.44836e-08 -1.79624e-07 1.1272e-07 -2.43488e-07 -1.55245e-07 -2.04233e-05 -3.74114e-06 -3.87172e-05 0.004 767.788 -2.50129 
162 1 1 -0.0396311 -0.023418 0.00390783 0 0 0 7.58558e-07 -1.79595e-08 2.48119e-07 2.46257e-07 -5.91397e-08 -1.05631e-07 -1.64579e-05 0.000149012 0.000101913 0.004 326.166 2.29675 
53 1 1 -0.027206 -0.0202486 0.00395168 0 0 0 2.62615e-06 -3.74635e-07 1.0002e-06 5.56716e-07 5.2053e-08 -2.33295e-07 0.000160042 0.000571835 -0.000182408 0.004 353.121 2.94795 
148 1 1 -0.0187584 -0.0220642 0.00393817 0 0 0 2.79607e-06 -2.30284e-07 1.31333e-06 9.12739e-07 -1.8144e-07 -2.96859e-07 0.000152126 0.000476935 -0.000117476 0.004 392.265 3.14892 
195 1 1 -0.00727817 -0.02155 0.00394567 0 0 0 2.90667e-06 -9.92549e-07 7.35462e-07 8.69171e-07 -8.45048e-10 -1.60823e-07 0.000138138 0.000496307 2.3761e-05 0.004 470.666 1.96399 
179 1 1 0.00736629 -0.0231031 0.00394274 0 0 0 2.56699e-06 1.40949e-07 1.4458e-06 8.54503e-07 -3.03398e-07 1.84493e-08 -4.54089e-05 0.000406454 -0.000211228 0.004 625.992 -1.80636 
95 1 1 0.0148506 -0.02031 0.00393212 0 0 0 2.10426e-06 -2.70701e-07 6.22969e-07 8.38076e-07 -6.10311e-07 -2.82227e-07 3.41113e-05 0.000195199 3.47796e-05 0.004 676.383 -2.59096 
76 1 1 0.0230028 -0.0233057 0.00397473 0 0 0 1.39906e-06 8.95016e-09 1.1031e-07 5.97043e-07 -7.29705e-07 -2.89018e-07 2.10781e-05 0.000192273 7.98541e-05 0.004 730.996 -3.07505 
100 1 1 0.0325586 -0.0200895 0.00388596 0 0 0 1.10653e-06 -4.3628e-09 -2.21577e-07 4.20485e-07 -6.25831e-07 -3.18369e-07 -4.68682e-05 0.000230065 -3.99409e-05 0.004 759.669 -2.66389 
65 1 1 -0.0430742 -0.0162802 0.00393146 0 0 0 6.68513e-07 -2.2197e-07 4.00222e-07 1.5328e-07 1.39908e-08 -4.47953e-08 1.64637e-05 -3.40984e-05 -9.43962e-05 0.004 318.557 1.89629 
102 1 1 -0.0351583 -0.0155178 0.0039445 0 0 0 2.18867e-06 -6.69102e-07 8.46492e-07 6.8856e-07 -3.83311e-07 -2.73528e-07 0.000228676 0.000292422 6.00511e-05 0.004 329.173 2.27542 
213 1 1 -0.0132588 -0.0162738 0.00397365 0 0 0 3.34326e-06 -7.13488e-07 6.67609e-07 8.05383e-07 7.28105e-08 -1.38528e-07 -0.000133544 0.000401415 -0.000125519 0.004 418.444 2.90117 
10 1 1 0.00114845 -0.0182524 0.00475004 0 0 0 3.96468e-06 -2.25704e-07 9.76778e-07 1.36831e-06 -4.84994e-08 -2.89225e-07 -0.00017402 -0.000344827 0.000272238 0.004 564.737 -0.430997 
5 1 1 0.0087979 -0.0152553 0.00390316 0 0 0 2.59531e-06 -9.69325e-08 7.99043e-07 1.03064e-06 -4.73471e-07 -1.95893e-07 -0.000187406 0.000283088 -3.33545e-05 0.004 635.39 -1.95006 
96 1 1 0.0211693 -0.0155242 0.00395652 0 0 0 1.54163e-06 1.1228e-08 5.87571e-07 6.43567e-07 -6.68888e-07 -2.15466e-07 0.000104889 0.000136585 3.50687e-05 0.004 725.145 -2.92399 
167 1 1 0.0421923 -0.0183683 0.00392112 0 0 0 3.26327e-07 -1.39283e-07 -9.56289e-08 6.62157e-08 -1.7668e-07 -4.6226e-08 4.32858e-05 6.99609e-05 2.91582e-05 0.004 781.221 -1.95212 
124 1 1 -0.029011 -0.0104716 0.00394792 0 0 0 3.46603e-06 -9.46486e-07 6.60528e-07 8.41485e-07 -8.65738e-08 -1.91178e-07 0.000185785 0.00066732 -0.000122194 0.004 347.357 2.64328 
220 1 1 -0.0217759 -0.0144543 0.00398045 0 0 0 3.65996e-06 -1.38192e-06 5.51953e-07 3.02591e-07 4.21877e-07 -6.5531e-08 0.000609709 0.000566049 -0.0001874 0.004 373.549 2.92402 
144 1 1 -0.00535517 -0.0138038 0.00388182 0 0 0 4.00709e-06 -4.49045e-07 1.17791e-06 1.28014e-06 -7.65262e-08 -3.60276e-07 8.70109e-05 0.000820556 -0.000277446 0.004 506.437 0.875644 
26 1 1 0.00255572 -0.0104629 0.0039057 0 0 0 3.59548e-06 4.30993e-08 1.6112e-07 1.16825e-06 -1.64942e-07 -2.9984e-07 -0.000173251 0.000496533 -0.00018379 0.004 569.184 -0.561761 
194 1 1 0.0287352 -0.013103 0.00393081 0 0 0 1.5874e-06 4.03188e-08 2.91891e-08 5.40793e-07 -6.6915e-07 -2.31801e-07 -2.60142e-05 0.000262601 -8.09545e-05 0.004 753.608 -2.73341 
37 1 1 0.0366701 -0.0122308 0.00393306 0 0 0 1.24383e-06 1.20385e-08 -5.81979e-07 3.15731e-07 -7.28903e-07 -2.18209e-07 3.22657e-05 0.000218753 0.000161669 0.004 775.745 -2.15687 
219 1 1 0.0447285 -0.0108715 0.00390888 0 0 0 2.0618e-07 -7.23064e-08 -4.34832e-08 2.89704e-08 -8.25675e-08 2.81944e-08 4.02666e-05 5.23972e-05 1.98699e-05 0.004 787.082 -1.62009 
636 1 1 -0.0451997 -0.00864275 0.00391771 0 0 0 5.72284e-07 -1.38892e-07 1.58568e-07 -4.8701e-08 8.31035e-09 -1.06747e-07 -1.3887e-06 0.000106732 3.47851e-05 0.004 312.536 1.53554 
39 1 1 -0.0161466 -0.00885108 0.00388992 0 0 0 4.11346e-06 -9.59589e-07 9.40106e-07 8.70801e-07 1.32521e-07 -2.2553e-07 9.12605e-05 0.000518637 0.000117663 0.004 411.797 2.47358 
171 1 1 -0.00395985 -0.00597828 0.00392048 0 0 0 4.21488e-06 -1.17663e-07 6.8663e-07 1.18867e-06 6.93612e-09 -3.52557e-07 -1.97522e-05 0.000481869 0.000173371 0.004 511.183 0.71361 
200 1 1 0.0146298 -0.00986519 0.00396379 0 0 0 2.40181e-06 -1.0877e-07 4.37631e-07 9.70151e-07 -6.35524e-07 -3.53773e-07 5.01132e-05 0.000177944 4.84307e-05 0.004 682.377 -2.71079 
21 1 1 0.022252 -0.00762162 0.00394337 0 0 0 1.92415e-06 2.07809e-08 4.34175e-07 7.654e-07 -6.88625e-07 -1.62952e-07 2.92541e-05 0.000211406 -5.48113e-05 0.004 727.838 -2.94108 
17 1 1 0.0298456 -0.00520717 0.00394876 0 0 0 1.93297e-06 1.09501e-08 -4.64296e-07 7.22003e-07 -7.15551e-07 -1.91542e-07 2.02616e-06 0.000359965 1.61436e-05 0.004 753.369 -2.76782 
477 1 1 -0.0445832 -0.000710814 0.00396286 0 0 0 8.94054e-07 -1.5649e-07 7.90595e-08 -5.42408e-08 5.75162e-08 -1.08574e-07 1.55693e-05 0.000191496 -8.85629e-05 0.004 311.872 1.45329 
140 1 1 -0.0352672 -0.00371827 0.0038725 0 0 0 2.37049e-06 -8.03863e-07 8.27785e-07 3.9528e-07 1.01158e-07 -1.93997e-07 0.000174516 0.000364907 -2.13393e-05 0.004 330.212 2.11078 
119 1 1 -0.0273891 -0.00269834 0.00396392 0 0 0 3.21703e-06 -9.85318e-07 7.87042e-07 5.28707e-07 2.98992e-07 -2.92017e-07 0.000195658 0.000162411 0.000131277 0.004 354.533 2.52942 
207 1 1 -0.0194911 -0.00168728 0.00389515 0 0 0 3.81315e-06 -8.44094e-07 6.4329e-07 8.86983e-07 1.45588e-07 -2.91479e-07 -1.90776e-05 0.000584256 -6.72812e-05 0.004 391.684 2.5309 
69 1 1 -0.0111573 -0.00264551 0.0039301 0 0 0 3.85927e-06 -4.15339e-07 3.39269e-07 1.05969e-06 2.34775e-08 -3.04829e-07 -1.90936e-05 0.000471983 1.16667e-05 0.004 448.85 1.90301 
221 1 1 0.00874803 -0.00448988 0.00393203 0 0 0 3.00563e-06 2.23948e-07 5.30911e-07 1.17292e-06 -4.90548e-07 -1.47289e-07 -4.09978e-05 0.000273639 -0.000220468 0.004 644.798 -2.16033 
457 1 1 0.0163505 -0.0020806 0.0039593 0 0 0 2.33003e-06 -1.7822e-07 2.8621e-07 9.30247e-07 -6.08744e-07 -1.38754e-07 8.93964e-05 0.000325366 0.000124807 0.004 693.958 -2.84336 
155 1 1 0.0378912 -0.00224685 0.00393694 0 0 0 1.41358e-06 1.57595e-07 -5.16311e-07 3.08388e-07 -6.30341e-07 -2.60474e-07 -4.61813e-05 0.000290367 -2.39334e-05 0.004 777.821 -1.96271 
665 1 1 0.0459183 -0.00307627 0.00394261 0 0 0 4.89937e-07 9.1977e-09 -4.74538e-08 1.31126e-07 -1.55524e-08 -5.8935e-08 -2.07778e-05 0.000123192 -8.30061e-05 0.004 787.133 -1.57939 
120 1 1 0.00918486 -0.0371091 0.00876937 0 0 0 1.55921e-06 -1.80528e-07 1.11964e-06 5.37457e-07 -5.72025e-07 -3.97383e-07 0.000105966 0.000215307 -0.000134639 0.004 628.753 -1.88399 
9 1 1 -0.0247147 -0.033359 0.00937625 0 0 0 2.49485e-06 2.25405e-07 1.49578e-06 7.84496e-07 -5.17515e-08 -2.15357e-07 0.000132311 0.000159438 -0.000224375 0.004 372.118 3.2401 
101 1 1 -0.0188615 -0.0277191 0.0095515 0 0 0 3.98205e-06 -4.60284e-07 1.433e-06 1.3295e-06 -2.1223e-07 -5.91126e-07 8.06689e-05 0.000264958 -0.000342958 0.004 390.264 3.09236 
48 1 1 0.0221998 -0.0293138 0.00920033 0 0 0 1.49934e-06 -1.14346e-07 2.20362e-07 5.62954e-07 -9.51931e-07 -2.90111e-07 -0.000138013 -6.56668e-05 0.000177704 0.004 714.852 -2.92947 
75 1 1 0.02936 -0.0261745 0.00787423 0 0 0 1.30587e-06 8.60918e-08 6.2105e-08 5.25929e-07 -8.63938e-07 -2.95004e-07 2.04559e-05 3.64007e-05 -0.000159132 0.004 747.025 -2.88037 
46 1 1 -0.0327912 -0.0205809 0.00958352 0 0 0 3.81863e-06 -2.17972e-07 1.58226e-06 8.39284e-07 -3.3267e-07 -7.60138e-07 -0.000153225 -0.000305335 9.76655e-06 0.004 340.453 2.61023 
33 1 1 -0.013034 -0.0220249 0.00949572 0 0 0 4.99408e-06 -1.45688e-06 1.12394e-06 1.58694e-06 -3.35332e-07 -4.26397e-07 0.000147102 4.4642e-05 -7.82337e-05 0.004 420.072 2.76914 
11 1 1 0.02689 -0.0187448 0.00924464 0 0 0 2.60931e-06 1.76564e-07 2.91053e-07 1.0417e-06 -1.1628e-06 -5.1879e-07 3.90036e-05 4.72143e-05 -3.39781e-05 0.004 742.578 -2.85222 
71 1 1 -0.0372751 -0.00954696 0.00876625 0 0 0 2.65589e-06 -8.93264e-07 1.08121e-06 7.70987e-07 -1.34554e-07 -1.22146e-07 -0.000238084 -0.000174168 -3.24696e-05 0.004 323.183 1.98491 
62 1 1 -0.0228082 -0.00771372 0.00814041 0 0 0 5.50436e-06 -1.54002e-06 1.34865e-06 1.04275e-06 4.32305e-07 -2.39016e-07 -0.000119275 -0.000180179 -1.09882e-05 0.004 373.302 2.73261 
19 1 1 -0.00970674 -0.00905633 0.00849074 0 0 0 7.49234e-06 -4.68202e-07 1.91772e-06 1.99109e-06 -1.02372e-07 -4.50248e-07 -0.00020582 -2.94464e-05 1.10304e-05 0.004 473.72 1.41465 
187 1 1 0.00796707 -0.00988205 0.00975754 0 0 0 1.77567e-06 5.62474e-07 1.09059e-06 3.66671e-06 -8.73843e-07 -5.01993e-07 -0.000122153 -0.00083106 0.000476606 0.004 630.292 -2.15249 
157 1 1 0.0395817 -0.00751948 0.00963114 0 0 0 1.83727e-06 5.3296e-08 -9.59615e-07 2.91685e-07 -7.69256e-07 -4.38236e-07 -1.06616e-05 1.97072e-05 -0.000163805 0.004 782.537 -1.81998 
18 1 1 0.0022911 -0.00404902 0.00852647 0 0 0 6.82517e-06 1.32592e-07 8.44317e-07 2.02969e-06 -4.17876e-07 -4.98755e-07 0.000143991 0.000569617 4.20149e-05 0.004 567.509 -0.48354 
185 1 1 -0.00531148 -0.045735 0.0104438 0 0 0 6.78901e-07 2.39131e-07 5.44417e-07 3.37448e-07 1.05786e-08 -1.16787e-07 4.17784e-05 4.74314e-05 -0.000135579 0.004 499.999 1.40883 
83 1 1 0.00256736 -0.0459473 0.0112661 0 0 0 7.31297e-07 -5.68448e-08 1.04779e-06 2.51872e-07 -3.03302e-07 -2.36347e-07 0.000236364 -0.000145425 -3.90212e-05 0.004 563.768 -0.28541 
58 1 1 -0.0218568 -0.0405821 0.0112769 0 0 0 1.73768e-06 -3.91761e-07 5.85669e-07 7.88652e-07 -3.10707e-07 -2.46695e-07 0.000131673 0.000140247 -0.000378706 0.004 386.597 3.29987 
105 1 1 -0.013586 -0.043966 0.0108788 0 0 0 5.53328e-07 1.14533e-07 6.04912e-07 1.00523e-06 -1.94228e-07 1.65467e-07 8.78653e-05 -0.000134254 -8.67423e-05 0.004 434.602 3.38712 
223 1 1 0.0103957 -0.0448674 0.0106706 0 0 0 6.3525e-07 -7.22209e-08 8.55959e-07 2.19212e-07 -3.1175e-07 -4.79109e-07 0.000167251 0.000237874 -7.1933e-05 0.004 621.952 -1.73863 
217 1 1 0.0179432 -0.0424253 0.0108281 0 0 0 5.22687e-07 -1.62573e-07 6.67062e-08 2.40247e-07 -5.0871e-07 -1.87246e-07 3.00253e-05 8.92502e-05 -2.10989e-05 0.004 669.271 -2.68751 
6 1 1 -0.0162615 -0.0350311 0.0113114 0 0 0 2.92348e-06 -2.53082e-07 2.21979e-06 1.35731e-06 -1.53816e-07 -5.0245e-07 2.74725e-05 -0.000535498 0.000291551 0.004 412.505 2.94981 
151 1 1 -0.00801308 -0.0382603 0.0108115 0 0 0 1.71938e-06 3.83941e-07 1.63116e-06 1.11102e-06 -6.14449e-08 -4.57469e-07 4.51799e-05 0.000137954 -3.2647e-05 0.004 470.84 2.03868 
2 1 1 0.000443917 -0.038308 0.010271 0 0 0 1.94977e-06 -2.69577e-07 1.45386e-06 5.98998e-07 -3.52952e-07 -4.34628e-07 -8.37197e-05 5.01439e-05 -6.03077e-06 0.004 549.26 0.0562852 
117 1 1 0.0249196 -0.0387267 0.0109177 0 0 0 3.31768e-07 -4.8914e-08 -5.57423e-08 2.12499e-07 -5.39979e-07 -9.58566e-08 -6.65975e-06 -2.69811e-05 2.15499e-05 0.004 712.167 -3.10237 
13 1 1 -0.0323455 -0.0327547 0.011537 0 0 0 1.63202e-06 1.73165e-07 1.02916e-06 5.56644e-07 -2.05202e-07 -5.90973e-08 3.11847e-05 -1.05432e-05 5.10223e-05 0.004 349.924 3.03737 
193 1 1 -0.0098258 -0.0305006 0.0107685 0 0 0 4.17737e-06 -1.02273e-07 3.39137e-06 1.77176e-06 -1.25264e-07 -4.40589e-07 0.000463145 0.000732386 -0.000592149 0.004 461.043 2.06172 
47 1 1 -0.00133758 -0.0305434 0.0103848 0 0 0 4.15995e-06 -1.71877e-07 2.7299e-06 1.80946e-06 -4.52667e-08 -1.96146e-07 4.08409e-05 0.000433055 -0.000447932 0.004 537.962 0.304172 
153 1 1 0.00656462 -0.0300231 0.0113662 0 0 0 3.84736e-06 -2.62999e-07 2.27327e-06 1.49802e-06 -8.61334e-07 -3.52569e-07 -5.59253e-05 0.000188814 5.99719e-05 0.004 605.459 -1.33402 
41 1 1 0.0148076 -0.0317915 0.010654 0 0 0 2.42931e-06 -2.81274e-07 1.04865e-06 8.93738e-07 -1.09575e-06 -5.1285e-07 4.5912e-05 0.000280387 -0.000138767 0.004 668.648 -2.58543 
163 1 1 0.0311565 -0.0339183 0.0111114 0 0 0 3.5269e-07 1.41924e-08 2.05129e-09 1.92166e-07 -5.66728e-07 -2.39875e-07 5.11465e-06 3.06002e-05 -3.50824e-05 0.004 745.464 -2.95153 
214 1 1 -0.0375015 -0.0268265 0.010714 0 0 0 1.80593e-06 1.15555e-07 8.52449e-07 5.76886e-07 -1.92762e-07 -2.08994e-07 -2.04319e-05 -8.32738e-05 -0.000160367 0.004 334.548 2.54918 
210 1 1 0.0364694 -0.0280971 0.0111135 0 0 0 5.21697e-07 -8.14543e-08 -1.56846e-07 2.18929e-07 -4.51125e-07 -2.27811e-07 9.52183e-07 3.99783e-05 -5.38155e-05 0.004 766.644 -2.50039 
108 1 1 -0.0260915 -0.0246404 0.0109305 0 0 0 4.5324e-06 2.15425e-07 2.33922e-06 1.52126e-06 -1.05401e-07 -5.25685e-07 0.000194883 0.00015982 -9.24855e-05 0.004 361.411 2.9067 
40 1 1 -0.00551113 -0.0238697 0.0113285 0 0 0 6.0976e-06 -5.97699e-07 2.26824e-06 2.34903e-06 -1.21097e-07 -4.38029e-07 -0.000355099 0.000131621 0.000229628 0.004 495.183 1.23614 
55 1 1 0.00236207 -0.0232851 0.0108249 0 0 0 5.54518e-06 -4.51691e-07 2.35425e-06 2.17407e-06 -4.20999e-07 -4.42104e-07 -2.55291e-06 -0.000129801 -0.000189149 0.004 574.534 -0.590719 
91 1 1 0.0120918 -0.0243837 0.0101856 0 0 0 4.34449e-06 1.11843e-07 1.40562e-06 1.67256e-06 -1.07803e-06 -5.7557e-07 -0.000126504 0.000240068 -0.000292645 0.004 652.621 -2.30508 
112 1 1 0.0192794 -0.0205361 0.0105073 0 0 0 3.89194e-06 8.81016e-08 1.01746e-06 1.73013e-06 -1.40978e-06 -7.08023e-07 -0.000149398 0.000308016 3.59284e-06 0.004 699.506 -2.89599 
178 1 1 0.0318658 -0.0225253 0.0144789 0 0 0 1.95241e-06 9.00168e-09 -1.83922e-07 6.48916e-07 -1.06887e-06 -3.77025e-07 -3.64369e-05 0.000116424 -2.61656e-05 0.004 761.22 -2.6209 
131 1 1 0.0407765 -0.0214683 0.0110513 0 0 0 7.41541e-07 -2.73613e-07 -2.4698e-07 2.6886e-07 -4.75916e-07 -1.77644e-07 -3.17909e-05 -2.15283e-05 -2.31715e-05 0.004 777.336 -2.10576 
160 1 1 -0.0414721 -0.0199398 0.0108131 0 0 0 1.29915e-06 -1.95074e-07 4.68823e-07 3.59136e-07 -1.46594e-07 -2.41852e-07 5.12428e-06 0.000120716 0.000104125 0.004 321.096 2.0239 
43 1 1 -0.0361086 -0.0151005 0.0142598 0 0 0 3.71418e-06 -9.15715e-07 1.51703e-06 8.71201e-07 -8.43261e-07 -1.02549e-06 0.000240793 0.000206506 8.60433e-05 0.004 328.918 2.16446 
4 1 1 -0.0270343 -0.0151184 0.010074 0 0 0 6.12267e-06 -4.35779e-07 1.81742e-06 1.57767e-06 -2.00832e-07 -6.81683e-07 -0.000373278 5.30251e-05 -0.00019882 0.004 355.932 2.80151 
104 1 1 -0.020301 -0.0192302 0.0111977 0 0 0 6.42073e-06 -9.03303e-07 2.63907e-06 1.84812e-06 -3.44322e-07 -6.88103e-07 9.45762e-05 0.000231684 -0.000207093 0.004 384.974 2.89075 
20 1 1 -0.00745481 -0.0162218 0.0110955 0 0 0 7.95107e-06 -5.35491e-07 2.71924e-06 2.3308e-06 -4.8647e-08 -5.31417e-07 0.000237972 0.000570337 -0.000441986 0.004 488.064 1.24152 
45 1 1 0.000825043 -0.0164513 0.0146047 0 0 0 8.87963e-06 -8.93019e-07 3.31139e-06 3.16774e-06 -5.9975e-07 -8.08271e-07 7.29113e-05 0.000350951 -0.000305776 0.004 557.319 -0.239395 
159 1 1 0.00795158 -0.0177076 0.0113471 0 0 0 5.78329e-06 1.21623e-08 2.41573e-06 2.6474e-06 -1.05219e-06 -4.3729e-07 0.00011698 0.000277073 0.000279175 0.004 629.054 -1.8057 
136 1 1 0.0347931 -0.0163371 0.0104656 0 0 0 2.18919e-06 -1.48231e-07 -6.76646e-07 6.46664e-07 -1.02416e-06 -3.72643e-07 -1.79115e-05 2.51042e-05 -0.000187009 0.004 768.743 -2.37118 
177 1 1 -0.0443274 -0.0125289 0.0108104 0 0 0 1.24222e-06 -2.7428e-07 4.60167e-07 3.09619e-07 -9.60058e-08 -2.46388e-07 -1.31873e-06 3.17334e-05 -7.60746e-05 0.004 316.102 1.7211 
139 1 1 -0.016821 -0.0121092 0.0110439 0 0 0 7.79852e-06 -1.18427e-06 2.11432e-06 1.8815e-06 -1.15874e-07 -8.41436e-07 -0.00016416 0.000376902 4.37177e-05 0.004 404.295 2.5576 
211 1 1 -0.00209541 -0.0104148 0.0103075 0 0 0 8.35129e-06 -6.05389e-07 2.16511e-06 2.40865e-06 -3.20735e-07 -6.27848e-07 0.000114946 0.000361556 0.000157322 0.004 530.151 0.320901 
54 1 1 0.0149155 -0.0138957 0.0108309 0 0 0 4.89132e-06 4.40168e-07 1.4869e-06 2.21947e-06 -1.23262e-06 -4.30174e-07 -7.92758e-05 0.000283349 -8.92183e-05 0.004 681.596 -2.75481 
84 1 1 0.023272 -0.0118009 0.0106602 0 0 0 4.01444e-06 2.31656e-07 7.59623e-07 1.46609e-06 -1.26603e-06 -5.14494e-07 -0.000129617 0.000434609 -9.0366e-05 0.004 731.899 -2.90179 
180 1 1 0.0438204 -0.0140997 0.0110465 0 0 0 7.01759e-07 -1.98422e-07 -3.29675e-07 2.05369e-07 -3.52759e-07 -1.30457e-07 -3.42286e-05 2.14132e-05 -2.19647e-05 0.004 785.329 -1.70884 
103 1 1 0.0174441 -0.00636559 0.0105707 0 0 0 5.33799e-06 2.13864e-07 7.85726e-07 1.9761e-06 -1.15025e-06 -5.82507e-07 -0.000181469 0.000247006 -2.12385e-05 0.004 699.752 -2.81683 
156 1 1 0.0308891 -0.00946111 0.0106299 0 0 0 3.46567e-06 7.1143e-08 -5.8453e-07 1.06323e-06 -1.20331e-06 -4.37572e-07 -4.50208e-05 5.61214e-05 -8.32995e-05 0.004 756.713 -2.61325 
197 1 1 -0.0457831 -0.0047112 0.0107571 0 0 0 1.17697e-06 -2.45725e-07 2.18083e-07 1.69712e-08 4.0495e-08 -2.78496e-07 -5.41495e-06 3.78144e-05 -2.98597e-05 0.004 312.483 1.4962 
87 1 1 -0.0386059 -0.00381153 0.0141381 0 0 0 2.44532e-06 -7.35312e-07 1.03212e-07 6.74127e-08 -2.76136e-07 -7.90632e-07 0.000166648 6.51872e-05 0.000128275 0.004 318.664 1.75501 
130 1 1 -0.0313597 -0.00387382 0.0107775 0 0 0 4.10225e-06 -1.40991e-06 7.4812e-07 1.00935e-06 -4.76152e-07 -1.13502e-06 -4.74934e-05 -2.35168e-05 -0.000446916 0.004 335.478 2.2457 
604 1 1 -0.0224595 -0.000300841 0.0110796 0 0 0 7.89555e-06 -1.13807e-06 1.39172e-06 1.67531e-06 -8.84547e-08 -3.08423e-07 -8.9586e-05 0.000295078 -0.000126204 0.004 379.283 2.49694 
146 1 1 -0.0155078 -0.00400724 0.0103913 0 0 0 7.77481e-06 -9.02851e-07 1.0752e-06 1.89424e-06 -6.54538e-08 -5.65225e-07 -3.38841e-05 0.000172886 0.000221681 0.004 422.923 2.1561 
57 1 1 -0.00517524 -0.00310604 0.0111955 0 0 0 8.97983e-06 -4.7784e-07 1.76786e-06 2.4117e-06 -5.43787e-07 -2.49432e-07 -2.39161e-05 0.00036197 -0.00010757 0.004 510.732 0.736223 
493 1 1 0.0116956 -0.000875015 0.0103666 0 0 0 6.50069e-06 4.38065e-07 6.79028e-07 2.31624e-06 -8.60554e-07 -4.54056e-07 -6.33151e-05 0.000456956 -3.70495e-05 0.004 662.703 -2.3337 
31 1 1 0.0250484 -0.00405414 0.0104601 0 0 0 4.4095e-06 1.51615e-07 -2.24762e-08 1.49556e-06 -1.18471e-06 -5.46604e-07 -3.9759e-05 0.00030148 -1.68106e-05 0.004 734.636 -2.78274 
588 1 1 0.0325998 -0.00174522 0.0105431 0 0 0 3.38575e-06 9.34534e-08 -7.52066e-07 1.1264e-06 -1.10337e-06 -3.01714e-07 3.75315e-05 5.99818e-06 5.20495e-05 0.004 758.261 -2.47556 
63 1 1 0.045924 -0.00327879 0.0119253 0 0 0 1.27748e-06 -6.94398e-08 -5.58322e-07 2.82619e-07 -2.96334e-07 -2.21957e-07 4.64029e-05 -0.000105295 2.84689e-05 0.004 785.895 -1.61899 
107 1 1 -0.00850634 -0.045273 0.017677 0 0 0 1.84227e-06 -6.56975e-09 1.51707e-06 4.73374e-07 -1.73909e-07 2.58538e-08 0.000354232 0.000234348 -0.000359156 0.004 484.421 1.64187 
222 1 1 -0.00141961 -0.0418101 0.017113 0 0 0 2.58429e-06 -3.23393e-07 1.91313e-06 6.51574e-07 -5.4684e-07 -6.59204e-07 -3.53974e-05 -0.00011143 0.00017188 0.004 541.65 0.257308 
142 1 1 0.00615863 -0.0401388 0.0154212 0 0 0 2.2284e-06 1.87675e-07 1.91371e-06 6.1753e-07 -8.23424e-07 -7.14179e-07 -8.52517e-05 0.00010983 -0.000155214 0.004 595.951 -1.10735 
172 1 1 0.0116013 -0.0446445 0.0189547 0 0 0 1.30814e-06 -1.03719e-07 9.49513e-07 1.90096e-07 -8.21435e-07 -6.33083e-07 0.000114034 0.000173786 -0.00025756 0.004 631.326 -1.97574 
109 1 1 0.0204197 -0.0412797 0.0183142 0 0 0 7.98433e-07 -2.9136e-07 1.38832e-07 3.52651e-07 -6.20182e-07 -1.96138e-07 -1.5364e-07 -9.82002e-05 -7.85224e-05 0.004 694.169 -3.23096 
150 1 1 -0.0273271 -0.0370832 0.0158763 0 0 0 1.9961e-06 2.00367e-08 1.14328e-06 9.06139e-07 -1.73854e-07 -1.26361e-07 8.01464e-05 -7.04302e-05 -0.000101254 0.004 367.175 3.19272 
38 1 1 -0.0197788 -0.0373719 0.0182824 0 0 0 2.98991e-06 -3.53292e-07 2.50303e-06 1.66929e-06 -1.15479e-07 -4.60294e-07 6.49774e-05 -0.000268029 -5.02989e-05 0.004 398.923 3.06361 
199 1 1 -0.0118545 -0.0370266 0.01765 0 0 0 3.54586e-06 -2.12392e-07 3.26773e-06 1.83626e-06 -3.65904e-07 -5.52933e-07 7.16569e-05 0.000295915 5.69293e-05 0.004 435.242 2.62417 
93 1 1 0.0137643 -0.0377759 0.0156807 0 0 0 2.23058e-06 -2.80461e-07 1.10336e-06 6.95088e-07 -1.09183e-06 -5.62502e-07 0.000115176 0.000244115 -0.000202385 0.004 652.764 -2.386 
64 1 1 0.0280176 -0.0365092 0.0179286 0 0 0 6.14175e-07 5.84183e-08 9.88516e-08 4.62137e-07 -4.80556e-07 -7.09296e-08 4.02551e-05 8.22919e-05 -0.000141719 0.004 737.279 -3.29225 
22 1 1 -0.0327402 -0.032422 0.0194567 0 0 0 2.43695e-06 -9.05625e-08 1.32327e-06 1.02791e-06 -2.90169e-07 -3.02637e-07 0.000167692 -7.34709e-07 -0.000356257 0.004 346.125 2.86511 
174 1 1 -0.0224319 -0.0302105 0.0162617 0 0 0 4.97362e-06 -3.38704e-07 2.4252e-06 2.29049e-06 -2.69277e-07 -8.47653e-07 -5.65446e-06 -4.22538e-06 -0.000311136 0.004 384.044 3.05748 
32 1 1 -0.00428311 -0.0343967 0.0166775 0 0 0 4.67477e-06 -4.90858e-07 3.67457e-06 1.83538e-06 -3.34733e-07 -5.61154e-07 0.000477972 0.000360535 -0.000373873 0.004 513.684 0.918287 
128 1 1 0.00347459 -0.033132 0.0179959 0 0 0 5.04752e-06 -3.57125e-07 3.67925e-06 2.00895e-06 -1.14691e-06 -4.94832e-07 0.000108517 0.000226457 5.93989e-05 0.004 571.965 -0.558084 
88 1 1 0.0113687 -0.0304834 0.0177099 0 0 0 4.77419e-06 1.43302e-07 2.29371e-06 1.73314e-06 -1.49359e-06 -6.06581e-07 -1.6762e-05 0.000130104 -0.000279906 0.004 649.711 -2.25054 
137 1 1 0.0208046 -0.0338186 0.0156334 0 0 0 2.03022e-06 -1.64626e-07 6.97243e-07 4.98635e-07 -1.25906e-06 -5.32348e-07 0.000153518 0.000309942 -0.000302787 0.004 708.963 -3.24458 
154 1 1 0.033982 -0.0311387 0.0180551 0 0 0 7.35466e-07 -1.44024e-07 -1.20041e-07 3.05912e-07 -5.82992e-07 -3.40376e-07 4.79132e-07 6.00983e-05 -5.92098e-05 0.004 762.781 -2.58939 
52 1 1 -0.031991 -0.0252343 0.0161626 0 0 0 4.06085e-06 -2.33844e-08 2.07769e-06 1.59927e-06 -6.28857e-07 -7.66888e-07 6.14909e-05 4.46697e-05 -0.000126848 0.004 342.978 2.63337 
80 1 1 -0.009601 -0.0265066 0.0175805 0 0 0 8.73627e-06 -1.23834e-06 4.48705e-06 3.39364e-06 -8.138e-07 -7.98771e-07 -4.91913e-05 0.000265654 0.000152775 0.004 461.438 1.88079 
125 1 1 -0.00117363 -0.0267001 0.0173742 0 0 0 7.26103e-06 -2.53283e-07 4.19256e-06 3.46107e-06 -3.13296e-07 -4.08785e-07 9.01159e-05 -0.000121819 -0.00047636 0.004 537.897 0.266212 
72 1 1 0.0179273 -0.0264316 0.015637 0 0 0 4.59035e-06 1.13191e-08 1.91368e-06 1.84655e-06 -1.70094e-06 -7.71696e-07 7.09331e-05 6.77847e-05 -0.000193371 0.004 691.508 -2.94216 
34 1 1 0.0269647 -0.0287251 0.0154182 0 0 0 1.29993e-06 2.81817e-07 3.29344e-07 5.20104e-07 -1.15872e-06 -3.6508e-07 1.76859e-05 6.40781e-05 -0.000133052 0.004 743.986 -2.85877 
218 1 1 -0.0395968 -0.0234663 0.0176916 0 0 0 2.10331e-06 -3.80539e-08 9.57618e-07 7.63174e-07 -3.88019e-07 -3.82652e-07 -7.27286e-05 -0.000147762 0.000124973 0.004 324.386 2.12366 
70 1 1 -0.0247175 -0.0230258 0.0185786 0 0 0 6.80241e-06 -6.5011e-07 2.93017e-06 2.69632e-06 -6.96664e-07 -1.11875e-06 0.000157189 1.05136e-05 -0.000180033 0.004 366.386 2.7492 
132 1 1 -0.0171323 -0.0242634 0.0164744 0 0 0 7.43845e-06 -1.4505e-06 3.08084e-06 3.00967e-06 -3.88931e-07 -1.16871e-06 2.34133e-05 -6.11405e-05 -0.000277242 0.004 403.514 2.72076 
196 1 1 0.0071665 -0.023789 0.0170602 0 0 0 6.71476e-06 3.11376e-08 3.56718e-06 2.946e-06 -1.27553e-06 -7.31963e-07 -5.37727e-05 0.000444591 8.40708e-05 0.004 625.192 -1.68555 
362 1 1 0.0243874 -0.0214292 0.0170617 0 0 0 4.11512e-06 7.38075e-07 1.64822e-06 1.59668e-06 -1.39787e-06 -2.60434e-07 9.06147e-05 0.000516633 -0.00040395 0.004 742.978 -2.8343 
49 1 1 0.0387627 -0.0248027 0.0179815 0 0 0 9.48078e-07 -2.96835e-07 -2.63003e-07 3.00822e-07 -5.03662e-07 -2.37667e-07 4.28531e-05 5.13406e-05 -5.56228e-05 0.004 774.442 -2.23759 
173 1 1 -0.0431191 -0.0163148 0.0177078 0 0 0 2.12821e-06 -6.87143e-07 9.02641e-07 7.07421e-07 -4.41271e-07 -4.22104e-07 8.87381e-05 -8.6904e-05 -0.000213062 0.004 319.651 1.83556 
50 1 1 -0.0295064 -0.0167659 0.0182812 0 0 0 6.26389e-06 -7.61126e-07 1.90066e-06 2.00583e-06 -1.39096e-06 -1.99922e-06 -0.000106486 -0.000229653 0.0002139 0.004 344.654 2.41012 
202 1 1 -0.0134619 -0.0172167 0.0161107 0 0 0 9.46308e-06 -7.42515e-07 3.91992e-06 2.90055e-06 -3.95753e-08 -1.09146e-06 9.06785e-06 -0.000136729 0.000220782 0.004 432.748 2.18146 
86 1 1 -0.00524867 -0.0199157 0.0183758 0 0 0 1.00131e-05 -9.70147e-07 4.48201e-06 3.88612e-06 -7.61268e-07 -9.9133e-07 6.00827e-05 8.57095e-05 -9.35328e-05 0.004 507.568 0.898953 
129 1 1 0.0138597 -0.0196295 0.016286 0 0 0 6.12906e-06 6.0747e-07 2.58678e-06 2.75473e-06 -1.66576e-06 -5.46454e-07 0.000119818 -3.41e-05 1.56343e-05 0.004 673.43 -2.50838 
82 1 1 0.0291401 -0.0151359 0.0159325 0 0 0 4.25702e-06 1.9768e-07 2.80108e-07 1.2178e-06 -1.43031e-06 -5.73411e-07 5.43495e-05 0.000451632 -3.30643e-05 0.004 757.309 -2.60972 
1 1 1 0.0424683 -0.0178049 0.0178803 0 0 0 1.34311e-06 -3.77036e-07 -3.77361e-07 3.30696e-07 -5.06791e-07 -2.91567e-07 4.50968e-05 0.00011799 -5.34527e-06 0.004 781.468 -1.8845 
168 1 1 -0.0224798 -0.0136303 0.016417 0 0 0 8.45331e-06 -7.79175e-07 3.13043e-06 2.36781e-06 -6.94065e-07 -1.05919e-06 6.29734e-05 1.11832e-05 -0.000297464 0.004 376.652 2.66606 
121 1 1 -0.00514899 -0.0120184 0.0174569 0 0 0 1.10826e-05 -9.78278e-07 3.6355e-06 3.5487e-06 -6.41839e-07 -6.43121e-07 -0.000261383 -3.81412e-05 9.79422e-05 0.004 514.525 0.667601 
28 1 1 0.00814308 -0.0139813 0.0183177 0 0 0 1.03531e-05 -4.44639e-07 4.30463e-06 4.15937e-06 -1.61739e-06 -7.20328e-07 7.75666e-06 0.00074307 -0.000353883 0.004 633.532 -1.88456 
42 1 1 0.0200408 -0.0148104 0.017266 0 0 0 6.70598e-06 1.16211e-06 2.83064e-06 2.50506e-06 -1.52939e-06 -3.80541e-07 -6.13408e-05 0.000248883 -0.00014051 0.004 717.422 -2.80227 
60 1 1 0.0376281 -0.011647 0.016172 0 0 0 2.72432e-06 -2.35598e-07 -1.3286e-06 9.07999e-07 -7.5776e-07 -5.70146e-07 4.13702e-05 0.000172558 0.000184697 0.004 779.393 -1.92991 