ITEM: TIMESTEP
21600
ITEM: NUMBER OF ATOMS
890
ITEM: BOX BOUNDS mm mm mm
-0.05 0.05
-0.05 0.05
0 0.15
ITEM: ATOMS id type type x y z ix iy iz vx vy vz fx fy fz omegax omegay omegaz radius f_Temp[0] f_heatFlux[0] 
59 1 1 -0.000715575 -0.0460982 0.00395592 0 0 0 3.57603e-05 -2.12411e-06 4.96407e-06 3.37953e-05 -1.44861e-05 1.00407e-06 0.000376993 0.00271573 -0.0115197 0.004 435.374 44.2955 
170 1 1 -0.0173498 -0.0426415 0.00397293 0 0 0 3.4065e-05 -2.02108e-05 -2.95199e-05 1.50879e-05 3.2021e-05 1.20609e-05 -0.00612072 -0.000590431 -0.00153486 0.004 303.694 4.36496 
15 1 1 -0.00975023 -0.0449638 0.00393392 0 0 0 2.31843e-05 2.92392e-06 -9.79896e-06 4.16535e-05 -2.10476e-05 -1.06692e-05 -0.00258381 0.00408254 0.00331186 0.004 317.24 13.1084 
116 1 1 0.00648758 -0.0428197 0.00395865 0 0 0 3.38555e-05 -1.82294e-05 5.28156e-07 1.85167e-05 1.41684e-05 -6.38959e-06 0.00408118 0.00473842 0.00652161 0.004 696.894 -25.9381 
158 1 1 0.0143627 -0.0437626 0.00389977 0 0 0 1.90035e-05 1.30515e-06 -7.04061e-06 3.14574e-05 1.06485e-05 -2.61482e-07 0.0011177 0.000470318 -0.000573792 0.004 783.358 -12.6661 
98 1 1 0.0216779 -0.0406527 0.00394261 0 0 0 1.87545e-05 4.06254e-06 -1.45709e-06 4.4697e-05 -9.42317e-06 -1.16367e-05 -0.00168278 0.00129166 -0.00325562 0.004 797.97 -2.73211 
169 1 1 -0.0244315 -0.0390659 0.00391421 0 0 0 5.53099e-05 -3.86216e-05 -4.41285e-05 -0.000100442 2.38908e-05 -3.39058e-07 0.00412411 0.0086647 -0.00694625 0.004 300.483 0.794378 
89 1 1 -0.011812 -0.0369238 0.00395448 0 0 0 5.94659e-05 -4.39137e-05 -3.78884e-05 -2.71843e-05 8.79548e-05 4.85954e-05 -0.0054539 -0.00678359 -0.00427056 0.004 323.264 14.5964 
152 1 1 -0.00418344 -0.0390222 0.0039052 0 0 0 3.49638e-05 -8.27207e-06 3.54471e-06 5.06998e-05 -1.27259e-05 1.70316e-06 0.0022603 0.00289017 0.0162822 0.004 418.325 19.2431 
23 1 1 0.0153482 -0.0358821 0.00391127 0 0 0 1.8444e-05 2.4248e-06 6.0938e-06 3.86291e-05 -8.66599e-06 2.69228e-06 0.000502573 0.00358936 0.00180565 0.004 792.967 -8.1458 
118 1 1 -0.0307532 -0.03424 0.00392727 0 0 0 7.18786e-05 -2.09326e-05 -3.2584e-05 -0.000180591 0.000171431 -1.67123e-05 0.00805382 0.0157944 0.00101884 0.004 300.03 0.0657827 
30 1 1 -0.0188784 -0.0333719 0.00395265 0 0 0 9.24199e-05 -6.44927e-05 -5.03573e-05 -0.000270086 0.000111309 4.58237e-05 0.0139258 0.0210172 0.000817814 0.004 302.787 3.07479 
215 1 1 -0.00603679 -0.0313237 0.00390641 0 0 0 5.62299e-05 6.62916e-06 -1.99509e-05 6.2343e-05 -6.27918e-05 3.79284e-05 -0.00705565 -0.0141093 -0.0296251 0.004 350.432 29.8298 
74 1 1 0.00184133 -0.0338192 0.00390675 0 0 0 1.93668e-05 1.02843e-05 1.33381e-05 6.79933e-05 -2.24299e-05 -1.02685e-05 0.000487139 0.00320526 -0.00939031 0.004 608.901 -39.0557 
24 1 1 0.00917845 -0.0308341 0.0039203 0 0 0 1.56646e-05 -3.95376e-06 1.35337e-05 5.45345e-05 -1.06788e-05 -1.07462e-05 0.00194204 0.00034321 0.00239503 0.004 762.548 -24.6145 
198 1 1 0.0259422 -0.0339524 0.00395551 0 0 0 3.48559e-05 -8.8312e-06 1.62802e-05 4.45871e-05 -1.55392e-05 -1.54303e-05 0.00921302 0.00790841 0.00263282 0.004 799.792 -0.40182 
161 1 1 0.03353 -0.0316074 0.0039136 0 0 0 1.58109e-05 1.33574e-05 9.83136e-06 1.40775e-05 5.17165e-06 -2.02165e-05 -0.000736374 0.0026216 -0.00235259 0.004 799.981 -0.0480642 
8 1 1 -0.0322703 -0.0264168 0.00398354 0 0 0 -5.59915e-05 6.21938e-05 0.000576914 -0.000403251 -1.46854e-05 0.000111378 0.0963981 0.096188 -0.0400655 0.004 300.018 0.0417889 
12 1 1 -0.0244147 -0.0276967 0.00386371 0 0 0 4.23076e-05 2.94299e-06 5.49371e-05 -0.000639943 0.000104418 0.000105965 0.00452042 0.0152357 0.000856594 0.004 300.295 0.495841 
188 1 1 -0.0131745 -0.0277762 0.00396586 0 0 0 0.000276193 -0.000160337 -3.59987e-05 -0.000231256 -2.60719e-05 0.000138167 0.02033 0.0560554 0.0658286 0.004 304.592 5.28323 
77 1 1 -0.000100471 -0.0260808 0.00389416 0 0 0 3.60336e-05 -5.99579e-06 3.59102e-05 2.88227e-05 -4.58973e-05 7.2541e-06 0.00568973 0.00607349 0.0211126 0.004 493.402 35.2886 
113 1 1 0.0165642 -0.0280203 0.00388657 0 0 0 2.30548e-05 -1.00617e-05 1.85722e-05 4.2366e-05 -3.03905e-05 -8.8898e-06 0.00375596 0.00522991 -0.00317983 0.004 794.839 -6.09526 
183 1 1 0.0384541 -0.0253743 0.00393849 0 0 0 8.34385e-06 1.68017e-05 1.53546e-05 1.63174e-05 -1.70773e-06 -1.71301e-05 0.00103555 0.0026008 -0.0027301 0.004 799.998 -0.00513169 
162 1 1 -0.0396307 -0.0234178 0.00390837 0 0 0 -0.000192833 0.000268116 0.000416543 -0.000314865 -0.000338722 -0.000489991 -0.061359 -0.0938652 0.049529 0.004 300.001 0.00301844 
53 1 1 -0.027207 -0.0202495 0.00395231 0 0 0 -9.01302e-05 7.80392e-05 0.000544669 -0.000912525 0.000854805 -0.000279637 -0.0328033 0.0729316 -0.0189586 0.004 300.059 0.12778 
148 1 1 -0.018759 -0.0220647 0.00393794 0 0 0 0.000222547 -0.000217732 -4.26919e-05 -0.000604478 -0.000135377 5.05102e-05 0.0608823 0.0465858 0.0592645 0.004 300.977 1.36168 
195 1 1 -0.00727841 -0.02155 0.0039456 0 0 0 9.42098e-05 -3.72495e-05 1.59265e-05 2.55285e-05 -0.000114021 -2.58493e-05 -0.00227528 0.0166427 0.00814088 0.004 323.031 17.3248 
179 1 1 0.00736608 -0.0231031 0.0039427 0 0 0 -1.98724e-05 -1.31553e-05 3.02107e-05 7.25723e-05 -6.93716e-05 2.40561e-05 0.0041628 -0.00454834 0.00652125 0.004 771.405 -21.9646 
95 1 1 0.0148503 -0.0203101 0.00393214 0 0 0 -1.26035e-05 1.54881e-06 4.21242e-05 5.26148e-05 -1.92722e-05 -7.97543e-06 -0.000661772 -0.000954134 0.00247523 0.004 793.741 -7.09247 
76 1 1 0.0230026 -0.0233057 0.00397478 0 0 0 1.95219e-05 -5.5427e-06 2.1841e-05 4.47596e-05 -2.4588e-05 -2.48345e-05 0.00484738 0.000413303 0.0113612 0.004 799.734 -0.47034 
100 1 1 0.0325585 -0.0200896 0.00388596 0 0 0 2.65507e-06 3.36129e-05 4.32232e-05 4.73781e-05 4.71309e-06 -2.30633e-05 -0.00427375 0.0025573 0.00508926 0.004 799.989 -0.0288432 
65 1 1 -0.0430748 -0.0162804 0.00393258 0 0 0 0.00028889 0.000600787 0.000278241 -0.000244395 -0.000266814 -0.00021613 -0.0475578 0.116377 -0.184581 0.004 300 0.000502191 
102 1 1 -0.0351585 -0.0155147 0.00394393 0 0 0 -0.000665193 0.000577662 0.000455109 -0.000323099 0.00217653 -0.000420924 -0.159542 -0.176956 0.158493 0.004 300.002 0.00702921 
213 1 1 -0.0132592 -0.0162742 0.00397353 0 0 0 7.15129e-05 -9.33519e-05 -6.66867e-06 -0.000250282 -0.000205225 4.38588e-05 0.0025929 0.0048849 0.00828684 0.004 302.748 3.56346 
10 1 1 0.00114827 -0.0182524 0.00474998 0 0 0 -2.76078e-05 -2.99219e-05 2.62744e-05 0.000144239 -9.54635e-05 -6.87204e-05 -0.0153462 0.00773969 -0.00262413 0.004 642.803 -39.7662 
5 1 1 0.0087977 -0.0152554 0.00390325 0 0 0 -2.71385e-05 -4.03778e-06 4.4831e-05 9.37231e-05 -3.67084e-05 -2.67988e-05 -0.00417323 -0.00169779 0.00221021 0.004 765.168 -21.7923 
96 1 1 0.0211692 -0.0155243 0.00395648 0 0 0 -2.14923e-05 -8.74708e-06 4.74259e-05 4.87403e-05 -1.79598e-05 -9.58467e-06 0.0040397 -0.00383105 -0.00100755 0.004 799.446 -0.917125 
167 1 1 0.0421923 -0.0183683 0.00392113 0 0 0 -5.67079e-06 1.92319e-05 1.39906e-05 1.91504e-05 -8.85771e-06 -7.49924e-06 -0.00388466 -0.00141036 0.00225063 0.004 800 -0.000318358 
124 1 1 -0.0290071 -0.0104738 0.0039464 0 0 0 -0.00058632 7.38927e-05 0.000368732 -0.000154186 0.00116809 0.000182427 -0.0095876 -0.0892262 -0.198801 0.004 300.038 0.0865906 
220 1 1 -0.0217754 -0.014456 0.00398072 0 0 0 -4.5847e-05 -0.000210711 7.47435e-05 -0.000518022 0.000216627 0.000329663 0.0216968 0.0473297 -0.00446052 0.004 300.648 1.02335 
144 1 1 -0.00535533 -0.0138039 0.00388173 0 0 0 7.51776e-06 -8.16011e-05 -1.65018e-05 0.000181793 -0.000134527 -5.57752e-05 0.00792621 -0.00172366 0.00433324 0.004 406.399 31.8916 
26 1 1 0.00255553 -0.0104631 0.00390567 0 0 0 -1.90312e-05 -3.46332e-05 -5.7293e-06 0.000181498 -6.51282e-05 -1.60386e-05 0.00290061 -0.00821088 0.00398752 0.004 633.861 -31.8292 
194 1 1 0.0287351 -0.0131031 0.00393082 0 0 0 -2.09713e-05 1.29981e-05 5.57999e-05 5.47988e-05 -1.20243e-05 -5.01313e-06 -0.000830085 -0.00205766 0.00406586 0.004 799.963 -0.0829529 
37 1 1 0.0366699 -0.0122309 0.00393308 0 0 0 -3.01381e-05 6.42679e-05 6.22904e-05 7.81493e-05 3.93842e-05 -3.16777e-05 -0.0147718 -0.00800414 0.00448565 0.004 799.999 -0.00338705 
219 1 1 0.0447285 -0.0108715 0.00390889 0 0 0 -8.47359e-06 1.43538e-05 2.53143e-06 2.10454e-05 -1.16775e-05 -5.04542e-06 -0.00580281 -0.00250928 -0.00392739 0.004 800 -2.20925e-05 
636 1 1 -0.045198 -0.00864452 0.00391725 0 0 0 -0.000546405 0.00111343 0.000586615 -9.52681e-05 0.000306247 -0.000174141 -0.0967948 -0.170994 0.482215 0.004 300 4.3055e-05 
39 1 1 -0.0161465 -0.00885162 0.00388944 0 0 0 -6.46706e-05 -0.000196827 -6.78899e-05 -0.000194594 -0.000123958 0.000141207 0.0111837 -0.019587 0.0123705 0.004 307.357 7.41341 
171 1 1 -0.00396003 -0.0059784 0.00392036 0 0 0 2.84888e-06 -0.000103661 -4.78606e-05 6.82304e-05 -0.000145336 1.31084e-05 0.00753175 -0.00253096 0.00845094 0.004 413.683 33.5784 
200 1 1 0.0146296 -0.00986528 0.00396386 0 0 0 -4.73931e-05 -1.41602e-05 4.51815e-05 7.79111e-05 -1.11092e-05 -2.49583e-05 0.00216952 -0.00533449 -0.00363481 0.004 794.589 -6.05187 
21 1 1 0.0222519 -0.00762168 0.0039434 0 0 0 -3.56021e-05 -1.87619e-05 5.82981e-05 5.96608e-05 -3.31549e-05 3.33338e-06 0.00166216 -0.00519817 0.00176149 0.004 799.573 -0.7116 
17 1 1 0.0298456 -0.00520726 0.00394881 0 0 0 -2.99382e-05 7.02009e-06 6.17662e-05 8.91878e-06 -5.10009e-06 1.11217e-05 -0.00127873 -0.00570469 0.00237672 0.004 799.974 -0.0579381 
477 1 1 -0.0445855 -0.000711349 0.00396145 0 0 0 -0.000173114 0.00100634 0.000235766 -0.000141785 -0.000348279 0.000645451 -0.175863 -0.0343487 -0.47787 0.004 300 0.000188237 
140 1 1 -0.0352672 -0.00372039 0.00387217 0 0 0 6.52334e-05 0.000362902 0.000326108 0.00113668 0.000648117 -0.00129872 -0.0760013 0.0362085 0.0903204 0.004 300.009 0.0237766 
119 1 1 -0.0273894 -0.0026995 0.00396355 0 0 0 -3.94983e-05 -0.000144129 0.000308614 0.00116064 0.000775945 -0.000441766 -0.084523 -0.034221 -0.0727244 0.004 300.146 0.299849 
207 1 1 -0.0194912 -0.00168801 0.00389462 0 0 0 -0.000182162 -0.000386703 8.61233e-07 9.31549e-05 0.000245555 0.000261952 0.0603707 -0.00781681 0.0276854 0.004 301.842 2.75949 
69 1 1 -0.0111573 -0.00264568 0.00392988 0 0 0 -3.03179e-06 -0.000191669 -8.2457e-05 -7.08256e-05 -0.000157985 0.00010483 0.0156608 3.72153e-05 -0.00319059 0.004 319.26 15.3834 
221 1 1 0.00874785 -0.00448991 0.00393204 0 0 0 -8.37092e-05 -1.86608e-05 1.52175e-06 0.000134006 -5.60271e-05 7.43527e-06 0.00682815 -0.0170454 -0.0129574 0.004 773.939 -17.0947 
457 1 1 0.0163505 -0.00208068 0.00395936 0 0 0 -5.79649e-05 -2.8424e-05 4.43646e-05 4.52168e-05 6.35608e-06 -1.40557e-06 -0.00406575 -0.00728461 0.000697747 0.004 797.756 -2.86899 
155 1 1 0.0378911 -0.00224695 0.00393696 0 0 0 -5.63146e-05 5.93696e-05 7.20152e-05 8.58945e-05 2.45926e-05 -2.91957e-06 -0.0158603 -0.0140035 0.00423974 0.004 799.999 -0.00349148 
665 1 1 0.0459183 -0.00307623 0.00394259 0 0 0 -2.21438e-05 -9.57149e-06 1.83745e-05 2.11425e-05 -3.80643e-05 2.41327e-05 0.00926851 -0.00550738 0.00612741 0.004 800 -4.72063e-05 
120 1 1 0.0091847 -0.0371091 0.00876926 0 0 0 1.58679e-05 -4.92077e-06 4.59388e-06 3.44247e-05 1.76399e-05 8.60812e-06 -0.00173751 -0.00521081 0.0011526 0.004 767.018 -22.9469 
9 1 1 -0.0247144 -0.0333593 0.00937614 0 0 0 6.56952e-05 -5.59288e-05 -2.34892e-05 -0.000300909 0.000148179 -3.64276e-05 0.0109983 -0.00937536 -0.0199678 0.004 300.226 0.402228 
101 1 1 -0.0188623 -0.0277193 0.00955117 0 0 0 0.000324001 -0.000247641 -6.97727e-05 -0.000888613 -0.000298254 0.000231555 0.00461129 -0.00969916 -0.0758003 0.004 300.831 1.37115 
48 1 1 0.0221996 -0.0293139 0.00920037 0 0 0 4.26736e-05 -6.10108e-07 3.581e-05 4.38673e-05 2.13708e-06 -3.81639e-05 -0.0137615 -0.00262971 0.00336039 0.004 799.078 -1.49924 
75 1 1 0.0293599 -0.0261746 0.00787425 0 0 0 3.41398e-05 1.91943e-05 3.99139e-05 3.64781e-05 8.39161e-06 -4.36433e-05 0.00576576 -0.00235285 0.00306964 0.004 799.931 -0.149778 
46 1 1 -0.032794 -0.0205794 0.00958345 0 0 0 -0.000530377 0.000497347 0.00109772 -0.000593876 0.00163606 -0.000139668 0.103179 -0.0479267 -0.0180017 0.004 300.015 0.0370184 
33 1 1 -0.0130345 -0.0220254 0.00949555 0 0 0 0.000223599 -0.000210892 -3.37522e-06 -0.00044519 -0.000204253 5.19571e-05 0.0112169 -0.00759462 0.053348 0.004 310.454 7.54406 
11 1 1 0.0268898 -0.0187449 0.00924464 0 0 0 -8.91508e-06 1.28793e-06 8.42096e-05 5.36413e-05 -3.26651e-06 -3.8858e-06 0.00737445 0.0010002 0.00556277 0.004 799.893 -0.225074 
71 1 1 -0.0372763 -0.00954677 0.00876977 0 0 0 0.000962608 0.00156699 0.00118125 2.43118e-06 0.000547958 -0.00254595 0.0189609 0.672739 -0.463195 0.004 300.001 0.00303133 
62 1 1 -0.0228068 -0.00771413 0.0081397 0 0 0 -0.000328214 -0.000673396 0.000291844 -0.000178239 0.000536254 -2.75501e-05 0.00568488 0.122499 0.0752442 0.004 300.622 1.02327 
19 1 1 -0.00970699 -0.00905654 0.00849054 0 0 0 3.15842e-05 -0.000202629 -3.77759e-05 2.67239e-05 -0.000318481 -8.43845e-05 -0.00345113 0.00985449 0.00457389 0.004 356.649 29.7225 
187 1 1 0.00796663 -0.00988199 0.00975756 0 0 0 -9.00015e-05 4.85612e-05 2.52478e-05 0.000191681 -0.000105354 -4.36246e-06 -0.0224404 0.0136675 0.0164305 0.004 783.317 -14.456 
157 1 1 0.0395815 -0.0075196 0.00963116 0 0 0 -7.87918e-05 7.53488e-05 0.000130224 0.000144856 1.8029e-05 -1.43273e-05 0.0172928 -0.00134136 0.00699722 0.004 800 -0.000406617 
18 1 1 0.00229091 -0.00404929 0.00852637 0 0 0 -7.5229e-05 -5.0469e-05 1.82156e-06 0.000197471 -9.12379e-05 1.64354e-05 0.00836855 0.00943942 0.0108623 0.004 626.336 -32.6119 
185 1 1 -0.00531144 -0.045735 0.0104436 0 0 0 4.19186e-06 1.60535e-07 3.52068e-06 5.32706e-05 -1.99158e-05 -3.8886e-06 0.00474182 -0.010914 -0.00195737 0.004 395.347 26.561 
83 1 1 0.00256735 -0.0459474 0.0112658 0 0 0 3.12643e-06 -1.05372e-05 -3.05253e-05 6.24697e-05 -4.25878e-06 -1.72157e-06 -0.00749344 0.0175495 -0.00161353 0.004 677.621 -42.2446 
58 1 1 -0.0218566 -0.0405822 0.0112769 0 0 0 0.000100839 -0.000129219 -0.000117565 -0.000114251 2.07857e-06 -3.60333e-06 -0.0235177 -0.00825313 -0.044886 0.004 300.379 0.702743 
105 1 1 -0.0135861 -0.0439661 0.0108786 0 0 0 6.11291e-06 3.42942e-05 -5.75605e-06 6.81087e-05 -1.39248e-05 -1.20109e-05 -0.0076109 -0.0149076 -0.000188149 0.004 303.359 4.12167 
223 1 1 0.0103956 -0.0448674 0.0106705 0 0 0 1.13637e-06 -6.95926e-06 -4.56961e-05 5.26617e-05 1.99822e-05 -2.58084e-05 -0.0042763 -0.012086 0.00237011 0.004 768.448 -23.2718 
217 1 1 0.0179432 -0.0424254 0.0108281 0 0 0 1.0495e-05 2.35516e-06 -7.54451e-06 4.71551e-05 1.36333e-05 1.96422e-06 -0.000987178 -0.000856476 -0.000313222 0.004 794.156 -6.90734 
6 1 1 -0.0162616 -0.0350309 0.0113118 0 0 0 0.000179549 -0.000210098 -2.05051e-05 -7.35247e-05 -4.43565e-05 -4.28736e-05 0.00645026 -0.0514952 0.0381487 0.004 303.035 3.95993 
151 1 1 -0.0080135 -0.0382603 0.0108113 0 0 0 8.16361e-05 -1.11699e-06 6.85764e-07 0.000124044 -7.90051e-05 2.54425e-05 -0.00839459 0.00455692 -0.0142154 0.004 334.865 21.6845 
2 1 1 0.000443832 -0.038308 0.0102708 0 0 0 2.04333e-05 -3.22201e-06 4.14466e-06 0.000113064 -2.42636e-05 1.54468e-05 0.00857092 -0.00195437 0.0033693 0.004 585.988 -36.1127 
117 1 1 0.0249195 -0.0387267 0.0109177 0 0 0 1.15008e-05 1.66844e-05 1.02483e-05 3.85915e-05 6.57234e-06 -1.78244e-05 0.00137658 -0.00404863 0.00103929 0.004 799.316 -1.14877 
13 1 1 -0.0323456 -0.0327555 0.011537 0 0 0 -3.82511e-05 0.000136621 -0.000147063 -6.23596e-05 0.000265152 0.000414991 -0.0563985 -0.0442447 0.00715639 0.004 300.02 0.0480505 
193 1 1 -0.00982605 -0.0305005 0.0107687 0 0 0 0.000134903 -2.89028e-05 8.6382e-05 5.62848e-05 -0.000148859 -3.02695e-05 0.0285141 0.0458648 0.00516266 0.004 321.843 17.769 
47 1 1 -0.00133805 -0.0305435 0.0103847 0 0 0 8.55181e-05 -1.33015e-05 5.46548e-05 7.89834e-05 -0.000101696 5.35358e-07 0.00548446 0.00665778 -0.0111363 0.004 475.707 33.6896 
153 1 1 0.00656414 -0.0300232 0.0113661 0 0 0 4.35024e-05 -2.36128e-05 3.99028e-05 7.1516e-05 -2.51218e-05 -7.94168e-06 0.00401494 0.00519594 0.000166949 0.004 723.421 -29.6191 
41 1 1 0.0148074 -0.0317915 0.010654 0 0 0 1.6603e-05 -7.27938e-06 2.95094e-05 6.22144e-05 -4.83376e-06 2.7257e-05 0.00333079 -0.00518275 -0.00506977 0.004 794.123 -7.14727 
163 1 1 0.0311565 -0.0339184 0.0111114 0 0 0 1.84899e-05 2.01648e-05 2.90886e-05 1.61391e-05 8.07008e-06 -2.00493e-05 0.00210475 0.00306556 -0.00412025 0.004 799.938 -0.135973 
214 1 1 -0.0375008 -0.0268271 0.0107144 0 0 0 -0.000213004 0.00017366 0.000246374 -9.66949e-05 0.000286498 4.59957e-05 0.154494 0.0349639 0.0525484 0.004 300.004 0.0100954 
210 1 1 0.0364693 -0.0280972 0.0111135 0 0 0 1.30983e-05 2.30733e-05 2.89321e-05 1.40377e-05 5.04152e-06 -2.1273e-05 0.000836662 0.00184043 0.0021752 0.004 799.995 -0.0130039 
108 1 1 -0.0260935 -0.0246396 0.0109277 0 0 0 0.00013871 -0.000389717 0.00031802 -0.00125452 0.000788127 -0.000284678 0.172973 0.0854173 0.00483308 0.004 300.151 0.297037 
40 1 1 -0.00551144 -0.0238697 0.0113287 0 0 0 0.000186538 -5.83057e-05 5.85613e-05 2.46414e-05 -0.000170702 -3.02181e-05 -0.00364085 0.00439434 -0.00505105 0.004 388.673 24.4579 
55 1 1 0.00236171 -0.0232851 0.0108249 0 0 0 4.36624e-05 -1.53261e-05 7.05242e-05 4.58253e-05 -7.47859e-05 1.25013e-06 0.0064529 -0.0023733 0.00990312 0.004 636.265 -26.3623 
91 1 1 0.0120914 -0.0243837 0.0101856 0 0 0 -5.14764e-06 1.59196e-06 5.3726e-05 6.8685e-05 -2.00821e-05 2.14691e-05 0.0051463 0.00167124 0.00849877 0.004 788.158 -11.6884 
112 1 1 0.0192792 -0.0205363 0.0105073 0 0 0 -2.75454e-05 -1.30378e-05 8.92096e-05 3.73748e-05 8.3658e-06 -2.71036e-05 0.00180139 -0.000907952 -0.00205557 0.004 798.631 -2.15367 
178 1 1 0.0318656 -0.0225255 0.0144789 0 0 0 3.45392e-05 1.97263e-05 7.8481e-05 5.09592e-05 1.76402e-05 -4.36974e-05 0.0016419 0.00925798 0.00554187 0.004 799.99 -0.0273584 
131 1 1 0.0407765 -0.0214683 0.0110513 0 0 0 -9.06579e-06 4.17927e-05 3.54927e-05 3.70093e-05 -8.46137e-06 -2.14334e-05 0.00240917 0.00237914 -0.00192347 0.004 800 -0.00128368 
160 1 1 -0.0414725 -0.0199404 0.0108138 0 0 0 0.000272702 0.000819861 0.000634282 -0.000609917 -0.000299735 -6.82565e-05 -0.079572 0.156492 -0.221234 0.004 300 0.000818887 
43 1 1 -0.0361103 -0.0151008 0.0142622 0 0 0 0.000332292 0.00089233 0.00106544 5.15383e-05 0.00163528 -0.000692458 -0.00607194 0.0255228 -0.49315 0.004 300.005 0.0148382 
4 1 1 -0.0270342 -0.0151195 0.0100734 0 0 0 -0.00034829 -2.70505e-05 0.00060377 -0.000714414 0.00148276 0.000478733 -0.151013 0.369654 -0.209029 0.004 300.105 0.211606 
104 1 1 -0.0203016 -0.0192311 0.0111971 0 0 0 0.000146605 -0.00054559 -4.35595e-05 -0.000692507 0.000140556 -4.88202e-05 -0.0282839 0.0164055 0.0117002 0.004 301.195 1.65261 
20 1 1 -0.00745524 -0.016222 0.0110954 0 0 0 0.000166644 -0.000181765 3.818e-05 0.000181208 -0.000234308 -9.45316e-05 0.00363004 0.0367072 0.0294096 0.004 366.785 34.1387 
45 1 1 0.000824635 -0.0164515 0.0146048 0 0 0 2.36438e-05 -4.43113e-05 8.87847e-05 0.000201768 -0.000112594 6.82554e-05 -0.00168788 0.00118849 0.00593563 0.004 615.678 -38.5091 
159 1 1 0.0079512 -0.0177076 0.0113472 0 0 0 -2.6002e-05 -8.82247e-07 0.000113926 5.3434e-05 -4.6052e-05 -1.95448e-05 0.00749833 -0.00470169 0.00052687 0.004 756.34 -23.8283 
136 1 1 0.0347929 -0.0163372 0.0104656 0 0 0 -3.02132e-05 5.25168e-05 9.3711e-05 8.89681e-05 -1.67238e-06 -3.90499e-05 0.0107904 -0.000210796 0.00922353 0.004 799.998 -0.00718592 
177 1 1 -0.0443278 -0.0125308 0.0108142 0 0 0 1.8865e-05 0.0013087 0.000977538 -0.000178591 0.000937061 -0.00138014 0.134728 -0.366708 0.290609 0.004 300 0.000272659 
139 1 1 -0.0168211 -0.0121101 0.0110433 0 0 0 0.000126063 -0.000413808 -0.000157039 -0.000347489 -0.000220735 -1.81403e-05 0.017123 0.0524054 0.0371056 0.004 304.446 5.17029 
211 1 1 -0.00209575 -0.010415 0.0103074 0 0 0 6.90369e-06 -0.000103426 5.22585e-06 0.000188408 -0.000159848 3.55256e-08 0.00285766 -0.00248836 0.0113759 0.004 499.341 15.9652 
54 1 1 0.0149152 -0.0138959 0.0108309 0 0 0 -4.46683e-05 -2.72996e-05 0.000103903 2.01882e-05 7.93179e-06 2.40125e-06 -0.00767827 0.0106036 0.000877359 0.004 795.307 -5.2522 
84 1 1 0.0232718 -0.0118011 0.0106602 0 0 0 -5.90418e-05 -1.7341e-05 0.000118417 5.33223e-05 -2.80647e-05 -5.1288e-06 -0.00254735 -0.00182193 0.00657866 0.004 799.826 -0.359944 
180 1 1 0.0438203 -0.0140997 0.0110465 0 0 0 -2.95919e-05 5.32008e-05 4.09461e-05 3.27827e-05 -1.46727e-05 -1.34086e-05 -0.000569572 0.0025533 -0.000970913 0.004 800 -8.19574e-05 
103 1 1 0.0174439 -0.00636585 0.0105708 0 0 0 -9.68571e-05 -4.19622e-05 9.58373e-05 3.95047e-05 -1.73864e-07 -1.73206e-05 0.00540087 -0.00375276 0.00724419 0.004 798.636 -2.15162 
156 1 1 0.030889 -0.00946126 0.01063 0 0 0 -5.87763e-05 1.86865e-05 0.000118004 6.08666e-05 -2.01278e-05 2.49241e-06 0.00108655 -0.00289021 0.000847598 0.004 799.984 -0.0413073 
197 1 1 -0.0457819 -0.00471362 0.0107527 0 0 0 0.000720053 0.0012418 0.00231305 -0.000899081 0.000257333 -0.000792008 0.241847 0.878173 -0.239147 0.004 300 7.60846e-05 
87 1 1 -0.038607 -0.00380894 0.0141369 0 0 0 0.00107375 0.00059032 0.00358803 -0.00127051 0.00111106 -0.00172827 -0.0122847 -0.840236 0.369659 0.004 300 0.00135889 
130 1 1 -0.0313594 -0.00387535 0.0107763 0 0 0 -0.000229127 -2.9023e-06 0.000675405 0.000737547 0.000800609 0.000155319 0.185141 -0.04393 -0.0924126 0.004 300.014 0.0368933 
604 1 1 -0.0224601 -0.000301876 0.011078 0 0 0 -0.000213513 -0.000616886 9.44612e-05 9.80648e-05 0.000657459 0.00051556 0.00290317 0.066786 -0.0634946 0.004 301.325 2.00091 
146 1 1 -0.0155082 -0.00400772 0.0103906 0 0 0 -8.86475e-05 -0.000493067 -0.000147513 -0.000204563 -0.000191808 0.000137651 0.0017167 -0.0204134 0.0782529 0.004 311.151 10.9296 
57 1 1 -0.00517537 -0.00310639 0.0111951 0 0 0 -3.65849e-05 -0.00013667 -9.27138e-05 0.000126624 -0.000189546 -5.67282e-05 -0.0157703 -0.014183 0.0174155 0.004 419.294 30.055 
493 1 1 0.0116955 -0.000875217 0.0103668 0 0 0 -0.000139744 -6.3347e-05 8.52312e-05 6.28741e-05 6.6209e-06 -7.00433e-05 0.00129576 -0.00227144 0.00434907 0.004 791.537 -9.34623 
31 1 1 0.0250483 -0.00405432 0.0104601 0 0 0 -9.83468e-05 -9.18816e-06 0.000108661 1.59188e-05 -8.29838e-06 2.72849e-05 -0.00557383 -0.00793591 0.00338877 0.004 799.832 -0.347856 
588 1 1 0.0325998 -0.00174535 0.0105431 0 0 0 -7.97474e-05 3.56315e-05 0.000113463 5.71666e-06 -3.67183e-05 2.29023e-05 -0.00147783 -0.00257044 0.00904471 0.004 799.983 -0.0452492 
63 1 1 0.0459239 -0.00327879 0.0119253 0 0 0 -4.63954e-05 4.82664e-05 6.42844e-05 3.94564e-05 -4.45842e-05 2.09182e-05 -0.0302616 0.0134565 -0.0107556 0.004 800 -0.000196697 
107 1 1 -0.00850593 -0.0452734 0.0176766 0 0 0 3.04871e-05 -2.79319e-05 7.63991e-06 1.10493e-05 6.89529e-05 -2.18638e-05 0.00632145 0.0214473 -0.00265577 0.004 349.098 29.7264 
222 1 1 -0.00141971 -0.0418098 0.0171128 0 0 0 1.73654e-05 -5.02999e-05 -1.5867e-05 0.000122489 -5.70567e-05 1.10007e-05 0.00340406 -0.00357177 -0.00927523 0.004 493.34 28.1083 
142 1 1 0.00615852 -0.040139 0.0154209 0 0 0 5.18154e-06 -5.30716e-05 -1.86982e-05 0.000112627 -1.63191e-05 2.17548e-05 0.0166891 0.0044559 -0.00176231 0.004 698.083 -29.748 
172 1 1 0.0116013 -0.0446447 0.0189546 0 0 0 -2.089e-05 -4.87397e-05 -1.80048e-05 6.44466e-05 1.46059e-05 2.53645e-05 -0.000762545 -0.0216838 0.00822701 0.004 775.868 -19.4802 
109 1 1 0.0204197 -0.0412797 0.0183141 0 0 0 -7.22968e-06 -8.52905e-06 2.16708e-06 0.000111568 6.17822e-05 -4.75966e-06 0.00347806 -0.00480128 0.00252389 0.004 798.58 -2.05304 
150 1 1 -0.0273271 -0.0370834 0.015876 0 0 0 8.7552e-05 -3.88193e-05 -0.00010556 -2.77281e-05 6.12095e-05 0.000102418 0.0359997 0.0434508 -0.0368534 0.004 300.115 0.24527 
38 1 1 -0.0197791 -0.0373721 0.0182828 0 0 0 0.000227691 -0.000298521 -0.000132855 8.88106e-05 4.50645e-05 -0.000216819 -0.133003 -0.0426698 -0.0377285 0.004 301.273 2.01659 
199 1 1 -0.0118546 -0.0370267 0.01765 0 0 0 0.000223054 -0.000128254 3.13592e-05 0.000137307 -0.000132335 -8.23688e-05 0.0217939 0.0220198 0.050391 0.004 307.576 8.43242 
93 1 1 0.0137641 -0.037776 0.0156806 0 0 0 -1.43319e-05 -3.60645e-05 2.09967e-08 8.88042e-05 3.77802e-05 4.67139e-05 0.00734216 -0.00404872 0.00635576 0.004 785.829 -12.0947 
64 1 1 0.0280175 -0.0365093 0.0179286 0 0 0 1.17251e-06 1.09986e-05 3.76197e-05 0.000120901 2.03404e-05 4.97533e-05 0.00666672 -0.00248943 -0.00676585 0.004 799.945 -0.122409 
22 1 1 -0.0327398 -0.0324236 0.0194568 0 0 0 8.30101e-05 -0.000127121 -0.000120767 -0.000110115 6.23733e-05 0.00018069 0.136255 0.13579 -0.0322416 0.004 300.018 0.0432555 
174 1 1 -0.0224317 -0.0302109 0.0162614 0 0 0 0.000437015 -0.000466736 -2.61823e-05 -0.000279034 -2.28264e-05 -5.29364e-05 0.129667 0.129136 -0.00474121 0.004 300.452 0.827622 
32 1 1 -0.00428412 -0.0343965 0.0166773 0 0 0 0.000135895 -2.71229e-05 5.48881e-05 0.000228509 -0.000132181 0.000104517 0.0142383 0.0158556 -0.00541907 0.004 394.606 36.4631 
128 1 1 0.00347391 -0.0331324 0.0179958 0 0 0 7.02794e-05 -7.65735e-05 6.78927e-05 0.0001587 -4.42188e-07 3.64722e-05 0.0103171 -0.00495008 -0.00875237 0.004 626.422 -31.9136 
88 1 1 0.0113682 -0.0304836 0.0177099 0 0 0 -2.99487e-05 -5.04304e-05 5.17126e-05 7.68881e-05 6.08463e-05 3.60342e-05 0.00969738 -0.00440116 -0.00189216 0.004 782.685 -14.4685 
137 1 1 0.0208043 -0.0338187 0.0156333 0 0 0 2.09787e-05 8.80904e-06 4.56969e-05 0.000137088 4.56418e-05 -2.93968e-05 0.0106383 0.00168238 -0.00598577 0.004 799.696 -0.604131 
154 1 1 0.033982 -0.0311388 0.0180551 0 0 0 1.78216e-05 1.96138e-05 4.35873e-05 2.67761e-06 2.81326e-05 -2.41186e-05 0.000101688 0.0013295 -0.00164657 0.004 799.99 -0.0269853 
52 1 1 -0.0319895 -0.0252373 0.0161628 0 0 0 3.61024e-05 -5.38679e-05 0.000201079 -0.000242419 0.00104947 0.000669974 -0.0614515 0.0414721 -0.0534552 0.004 300.027 0.063557 
80 1 1 -0.0096017 -0.0265064 0.0175808 0 0 0 0.000312684 -0.000127498 0.000126648 0.000116764 -0.000196822 -0.000144412 -0.00154401 0.00501969 -0.00916283 0.004 327.206 19.5129 
125 1 1 -0.00117406 -0.0267003 0.0173741 0 0 0 0.000127535 -7.01369e-05 0.00011156 0.00016293 -7.81523e-05 -1.68488e-05 0.00405801 -0.0161544 -0.0168429 0.004 444.564 41.792 
72 1 1 0.0179269 -0.0264318 0.0156369 0 0 0 -2.25309e-05 -1.31035e-05 9.34159e-05 0.000100727 5.19211e-05 7.74819e-06 0.00101541 -0.00928556 0.0131632 0.004 798.168 -2.665 
34 1 1 0.0269646 -0.0287254 0.0154182 0 0 0 4.28911e-05 2.59141e-05 6.75793e-05 5.08452e-05 4.16185e-05 -5.52644e-05 0.00885072 -0.000836798 -0.00250875 0.004 799.887 -0.235165 
218 1 1 -0.0395962 -0.0234657 0.0176925 0 0 0 0.000252226 0.000418284 0.000404548 -0.000147293 -0.000242421 -4.36317e-05 0.135643 -0.0456682 -0.0594197 0.004 300.001 0.00381149 
70 1 1 -0.0247169 -0.023026 0.0185757 0 0 0 0.000357171 -0.000630413 0.000209515 -0.000595127 0.000315652 0.000244628 -0.0815982 -0.0568206 0.0210302 0.004 300.402 0.70342 
132 1 1 -0.0171321 -0.024263 0.0164738 0 0 0 0.000345936 -0.000353529 -7.00036e-07 -0.000283878 -0.000166635 5.6208e-05 -0.00505948 -0.0132109 0.0626158 0.004 303.269 4.06394 
196 1 1 0.007166 -0.0237893 0.0170603 0 0 0 -1.53775e-05 -2.6605e-05 0.000121461 8.05904e-05 2.88419e-05 4.16031e-05 0.000269482 -0.00151182 -0.00904496 0.004 752.216 -27.2191 
362 1 1 0.0243872 -0.0214296 0.0170617 0 0 0 1.26136e-05 -1.58936e-05 0.000155929 6.89874e-05 4.86465e-05 1.96132e-05 0.00584503 0.0062434 0.0143409 0.004 799.897 -0.213956 
49 1 1 0.0387627 -0.0248028 0.0179815 0 0 0 6.43846e-06 2.81647e-05 4.42928e-05 7.72255e-06 2.58554e-05 -2.16867e-05 0.0029414 0.00328261 0.00254614 0.004 799.999 -0.00244511 
173 1 1 -0.0431192 -0.0163144 0.0177138 0 0 0 -0.000455872 0.000944915 0.000480551 -0.000394408 -0.000125096 -0.00103623 0.0686399 -0.211602 0.358753 0.004 300.001 0.00209429 
50 1 1 -0.0295072 -0.0167681 0.0182811 0 0 0 0.000330503 -0.000575208 8.6971e-05 -6.77875e-05 0.00141893 0.000972907 -0.0643394 0.148907 -0.0469691 0.004 300.076 0.162949 
202 1 1 -0.0134619 -0.0172161 0.0161114 0 0 0 0.000181147 -0.000315104 -1.43902e-05 -1.70935e-05 -0.000362778 -0.000223365 -0.0148653 -0.0605187 0.00152756 0.004 312.021 12.0937 
86 1 1 -0.00524888 -0.0199159 0.0183761 0 0 0 0.000160994 -0.000152852 0.000108164 0.00016704 -0.000163338 -5.66946e-05 -0.00133167 0.00152501 0.0307179 0.004 398.627 31.5951 
129 1 1 0.0138593 -0.0196298 0.0162861 0 0 0 -4.7241e-05 -6.53176e-05 0.000146184 5.43824e-05 -1.18271e-06 3.04303e-05 0.0209604 -0.00548184 0.0010437 0.004 790.69 -9.24848 
82 1 1 0.02914 -0.0151361 0.0159325 0 0 0 -6.4021e-05 7.10736e-06 0.000146612 0.000113194 3.64616e-05 -9.44127e-06 -8.23289e-05 -0.00512476 0.00769907 0.004 799.985 -0.0397075 
1 1 1 0.0424682 -0.017805 0.0178803 0 0 0 -1.90745e-05 4.43827e-05 5.49164e-05 4.35741e-05 7.79836e-06 -2.35734e-05 0.0012513 0.00358243 -0.000381074 0.004 800 -0.000507253 
168 1 1 -0.0224807 -0.0136315 0.0164159 0 0 0 0.000220363 -0.0006065 -0.000203676 0.000160133 0.000365995 0.000486316 0.0252435 -0.100785 0.00972784 0.004 300.75 1.25118 
121 1 1 -0.00514944 -0.0120188 0.0174568 0 0 0 3.19845e-06 -0.000204261 2.16305e-05 0.000135499 -0.000154956 -7.42142e-05 -0.0110308 -0.0261812 0.032701 0.004 456.205 20.6554 
28 1 1 0.00814274 -0.0139816 0.0183182 0 0 0 -9.25866e-05 -8.65919e-05 0.00022011 -6.04079e-06 4.79411e-05 -5.4556e-05 0.0124594 -0.000793301 0.00121205 0.004 777.324 -18.4751 
42 1 1 0.0200406 -0.0148108 0.0172661 0 0 0 -7.57659e-05 -4.91372e-05 0.000200366 3.80478e-05 2.17942e-05 6.69253e-06 0.000908283 -0.00391897 0.00951819 0.004 798.909 -1.63608 
60 1 1 0.037628 -0.0116472 0.0161719 0 0 0 -8.96691e-05 4.60077e-05 0.000161379 3.07469e-05 3.6896e-06 -2.56298e-05 -0.00227113 -0.00837917 -0.00188507 0.004 800 -0.00123666 
135 1 1 -0.0452091 -0.00865294 0.0176776 0 0 0 4.46969e-05 0.00190181 0.00166123 -0.000655296 -0.000194015 -0.00045132 -0.0626797 0.346444 -0.558593 0.004 300 0.000184199 
81 1 1 -0.0376103 -0.00945336 0.019942 0 0 0 0.000968874 -0.000741116 0.000730541 -0.00101056 0.000412489 0.00202494 0.0166986 0.268353 -0.0919943 0.004 300.001 0.00201757 
190 1 1 -0.0303503 -0.00906756 0.0166806 0 0 0 5.19244e-05 -0.000528767 0.000184523 -6.03946e-05 0.00101391 0.00148355 0.0839799 -0.0421521 0.193478 0.004 300.014 0.0360606 