ITEM: TIMESTEP
14400
ITEM: NUMBER OF ATOMS
890
ITEM: BOX BOUNDS mm mm mm
-0.05 0.05
-0.05 0.05
0 0.15
ITEM: ATOMS id type type x y z ix iy iz vx vy vz fx fy fz omegax omegay omegaz radius f_Temp[0] f_heatFlux[0] 
59 1 1 -0.000714801 -0.0460987 0.00395584 0 0 0 -9.56279e-05 -3.03375e-05 -3.17611e-05 -0.000329584 9.83757e-05 0.000104285 -0.00542034 0.0295279 0.0433338 0.004 300 0 
170 1 1 -0.0173494 -0.0426412 0.00397314 0 0 0 0.000114275 -3.04926e-05 -6.48372e-06 -0.000248857 9.72119e-05 5.3281e-05 -0.011136 -0.00302548 -0.00624871 0.004 300 0 
15 1 1 -0.00974964 -0.0449636 0.00393359 0 0 0 8.90395e-05 4.90167e-05 4.95413e-06 -0.000182336 -8.65974e-05 0.000189784 -0.0174736 0.0132145 0.0202844 0.004 300 0 
116 1 1 0.00648862 -0.0428217 0.00395724 0 0 0 -0.000191489 8.2417e-05 -1.28074e-05 -0.000138515 0.000813801 0.000110643 0.00635029 -0.0433425 -0.0120196 0.004 300 0 
158 1 1 0.0143647 -0.0437617 0.00389968 0 0 0 -0.000130166 8.7225e-06 4.92847e-05 -2.88515e-05 9.48519e-05 -9.86531e-05 0.0188725 -0.0102988 0.00394806 0.004 300 0 
98 1 1 0.0216814 -0.0406506 0.00394091 0 0 0 -7.34404e-05 3.56731e-05 -9.13492e-07 3.41216e-05 -0.000202716 3.29106e-05 0.00292886 0.0189367 -0.00634622 0.004 300 0 
169 1 1 -0.0244314 -0.0390657 0.0039144 0 0 0 0.000189305 -4.7223e-05 4.97902e-06 -0.000326908 -7.1873e-05 -6.96714e-05 0.00778243 0.0373207 -0.0162353 0.004 300 0 
89 1 1 -0.0118099 -0.0369237 0.00395516 0 0 0 7.85721e-05 4.59429e-05 -4.85826e-06 -0.000195949 -8.51695e-05 -4.10418e-05 -0.00380582 -0.00122903 0.0104443 0.004 300 0 
152 1 1 -0.0041808 -0.0390211 0.00390586 0 0 0 -6.45674e-05 -3.66545e-05 3.42955e-05 -0.000330105 0.000107078 8.04001e-05 0.0112024 -0.0168676 -0.0594599 0.004 300 0 
23 1 1 0.0153494 -0.0358823 0.00391035 0 0 0 -0.000130572 0.000170286 0.000132336 0.000350858 -1.2745e-05 -0.00030306 -0.0369142 0.0100181 0.00705107 0.004 300 0 
118 1 1 -0.0307532 -0.0342394 0.00392738 0 0 0 0.000129452 -9.08332e-05 1.3565e-05 -0.000166958 -0.000115286 -4.60106e-05 0.0192455 0.0164626 0.000893905 0.004 300 0 
30 1 1 -0.0188776 -0.0333725 0.00395348 0 0 0 0.000188608 -2.98172e-05 -3.44428e-05 -0.000157016 -0.000235491 4.97852e-05 0.00571065 0.0157899 0.00293722 0.004 300 0 
215 1 1 -0.00603645 -0.0313232 0.00390732 0 0 0 8.84834e-05 7.99537e-05 2.22972e-05 -0.000470165 0.000108846 -0.000175413 -0.0311817 0.0113993 0.0147964 0.004 300 0 
74 1 1 0.00184384 -0.0338196 0.00390757 0 0 0 -0.000255951 -1.85815e-05 0.000127427 0.000121981 -8.19731e-05 0.000224238 -0.0078699 -0.0477579 0.0148871 0.004 300 0 
24 1 1 0.00918083 -0.0308331 0.00391954 0 0 0 -0.000259532 0.000158942 6.587e-05 0.000620024 0.000107765 8.36566e-05 -0.0513569 0.000809572 0.0132739 0.004 300 0 
198 1 1 0.0259115 -0.0339252 0.00395481 0 0 0 0.000833905 -0.000614293 -0.000574487 0.000979107 -0.000861061 -5.23941e-05 -0.326597 -0.397928 0.34552 0.004 300 0 
161 1 1 0.0335167 -0.0316208 0.00391973 0 0 0 0.000276722 2.61036e-05 -0.000185784 0.000201582 -0.000402432 -0.000500691 -0.00783023 0.0659676 -0.0418279 0.004 300 0 
8 1 1 -0.0322718 -0.0264172 0.00398416 0 0 0 0.000115713 -7.58778e-05 4.27378e-05 6.3831e-05 -0.000356401 -8.34041e-06 -0.0169024 0.00409155 0.0045831 0.004 300 0 
12 1 1 -0.0244158 -0.0276982 0.00386328 0 0 0 0.000225077 -2.12817e-05 -3.38187e-05 5.64421e-05 -0.000309415 0.000119306 -0.0186375 0.04477 -0.00554508 0.004 300 0 
188 1 1 -0.0131748 -0.0277766 0.00396672 0 0 0 0.000201691 -1.34327e-05 -6.0485e-05 -0.000257956 0.00012252 5.98699e-05 0.00941932 0.0103704 -0.00810442 0.004 300 0 
77 1 1 -9.55531e-05 -0.0260828 0.00389667 0 0 0 -2.71591e-05 -1.92576e-05 0.000126778 -0.000683192 -5.68106e-05 -0.000237291 0.010949 -0.0460326 -0.028969 0.004 300 0 
113 1 1 0.0165692 -0.0280204 0.00388845 0 0 0 -0.000412919 0.000127219 4.28711e-05 0.000504378 -0.000150865 -0.000522303 -0.0264264 -0.076685 0.0146132 0.004 300 0 
183 1 1 0.0384467 -0.025385 0.00393839 0 0 0 0.000283076 2.89497e-06 -0.000211981 0.000263221 -0.000381059 -0.000599017 0.0495448 0.0237931 -0.0368545 0.004 300 0 
162 1 1 -0.0396317 -0.0234165 0.00390917 0 0 0 6.12266e-05 -2.99062e-05 1.27776e-05 2.41741e-05 -3.26557e-05 -6.62057e-05 0.00363309 0.00836902 -0.00991703 0.004 300 0 
53 1 1 -0.0272092 -0.0202498 0.0039527 0 0 0 0.000142346 -9.63294e-05 -4.40531e-05 0.000238458 -0.000452801 -0.000133204 0.00128663 0.00508854 0.00640462 0.004 300 0 
148 1 1 -0.0187599 -0.0220662 0.00393781 0 0 0 0.00019771 -4.13301e-05 -7.31325e-05 -0.000102453 -3.83291e-05 0.000251903 0.00683051 0.0327095 0.0435044 0.004 300 0 
195 1 1 -0.0072793 -0.0215522 0.00394805 0 0 0 0.000140187 0.000530847 1.47258e-05 -7.42065e-05 -3.17559e-05 -8.55683e-05 -0.131759 0.021009 0.101346 0.004 300 0 
179 1 1 0.00736469 -0.0231028 0.00394299 0 0 0 -0.000259849 8.69466e-05 0.000113162 7.0616e-05 -2.49043e-05 -0.000114861 0.00906829 -0.0627518 -0.0232436 0.004 300 0 
95 1 1 0.0148492 -0.0203099 0.00393174 0 0 0 -0.000186803 -1.32446e-05 7.47615e-05 8.93369e-05 -0.000506029 -8.14492e-05 0.0128906 -0.012519 -0.0441647 0.004 300 0 
76 1 1 0.0230031 -0.0233029 0.00397348 0 0 0 -0.000260149 -0.00023689 0.000319262 -0.00103612 -0.000751244 -0.000745537 0.0636664 -0.0262714 -0.0336098 0.004 300 0 
100 1 1 0.0325581 -0.0200921 0.00388612 0 0 0 -0.000159909 -7.86714e-05 -0.000223853 -0.000207737 -0.000150274 -0.000600908 -0.0186855 -0.0286572 0.116672 0.004 300 0 
65 1 1 -0.0430759 -0.0162785 0.00393393 0 0 0 3.82831e-05 -5.75308e-06 1.82476e-05 -1.78564e-05 3.57663e-05 -9.56463e-06 0.00208579 -0.00101469 0.00583535 0.004 300 0 
102 1 1 -0.0351612 -0.0155062 0.00394471 0 0 0 8.38085e-05 -5.45972e-05 2.7339e-05 -6.20874e-05 -0.000201765 -0.000168675 0.00188353 0.0095153 -0.024338 0.004 300 0 
213 1 1 -0.0132595 -0.0162748 0.00397349 0 0 0 -2.04793e-05 0.00011687 -0.000160744 -0.00039033 5.08391e-05 -0.000240863 -0.010168 0.0176355 0.025064 0.004 300 0 
10 1 1 0.00114646 -0.0182535 0.00475041 0 0 0 4.98816e-05 7.01317e-05 0.000112926 3.654e-05 -0.000338464 -0.000141646 0.0100739 0.0504164 -0.0224519 0.004 300 0 
5 1 1 0.00879637 -0.0152569 0.00390463 0 0 0 0.000153611 0.000258659 -2.51795e-05 0.00025165 -0.000136132 -0.00030097 -0.0563511 0.0333745 -0.0621723 0.004 300 0 
96 1 1 0.0211675 -0.0155233 0.00395572 0 0 0 -0.00016992 -0.00011437 0.000134389 -0.00027489 -0.000937019 -0.000589216 0.00297674 -0.0226285 0.0191417 0.004 300 0 
167 1 1 0.042189 -0.0183759 0.00392089 0 0 0 8.33197e-05 -8.83515e-05 -0.000191157 0.000443092 -0.000200387 -0.000426567 0.0135669 0.000529626 0.143944 0.004 300 0 
124 1 1 -0.0290075 -0.0104706 0.00394616 0 0 0 0.000142577 -9.51824e-05 3.3437e-06 -0.00025717 -6.05629e-05 -3.37738e-05 0.0389875 0.0420552 0.022053 0.004 300 0 
220 1 1 -0.0217763 -0.0144568 0.00398126 0 0 0 5.24799e-05 -1.52283e-05 -0.000148081 -0.000230597 3.80747e-05 -0.000229774 -0.00151076 0.0313013 0.023637 0.004 300 0 
144 1 1 -0.00535634 -0.013804 0.00388126 0 0 0 7.05635e-05 0.000164349 0.000142705 -0.000103733 -0.0005642 -0.000261093 -0.0256874 0.00167436 -0.0106232 0.004 300 0 
26 1 1 0.00255396 -0.0104644 0.00390658 0 0 0 0.000113998 0.000158521 0.000105342 0.000249647 -2.98353e-05 -0.000247729 -0.0171401 0.0481948 0.0509744 0.004 300 0 
194 1 1 0.0287343 -0.0131049 0.0039304 0 0 0 -0.000107495 -0.000265088 -2.62166e-06 -0.00084064 -0.000605597 -0.000314231 0.0533815 0.0104529 -0.0534012 0.004 300 0 
37 1 1 0.0366697 -0.0122367 0.00393408 0 0 0 0.000258717 0.000478876 -0.000139946 -0.0010555 0.00022621 -0.000238227 -0.0483669 0.0208805 0.170823 0.004 300 0 
219 1 1 0.044728 -0.0108766 0.00390789 0 0 0 0.000419809 4.04743e-05 0.000177571 7.14414e-05 -0.000699388 -0.000540038 0.121861 0.0907249 -0.19475 0.004 300 0 
636 1 1 -0.0451998 -0.00864086 0.00392099 0 0 0 5.52341e-06 4.30178e-06 6.91327e-06 -7.76439e-05 -6.0033e-06 -2.18157e-06 -0.00148671 0.00274521 0.00654112 0.004 300 0 
39 1 1 -0.0161476 -0.00885186 0.00388873 0 0 0 -7.27598e-06 3.22035e-05 -0.000112073 -0.000337244 8.67867e-06 -2.97427e-05 0.0264562 -0.00127037 -0.00968789 0.004 300 0 
171 1 1 -0.00396096 -0.00597875 0.00391997 0 0 0 -1.07577e-05 9.15229e-05 3.03701e-05 8.90888e-05 -0.000354677 -2.11389e-05 -0.0231083 -0.0202188 -0.0147218 0.004 300 0 
200 1 1 0.0146272 -0.00986358 0.00396535 0 0 0 0.00028838 0.000182683 4.10709e-05 -4.76695e-05 -0.00046407 -0.000566252 0.0290969 -0.027903 0.0480082 0.004 300 0 
21 1 1 0.0222501 -0.00762075 0.00394299 0 0 0 2.69214e-05 0.000135542 7.32801e-05 -0.00011683 -0.000817407 -0.000505385 -0.0407246 0.0200184 -0.0326653 0.004 300 0 
17 1 1 0.0298465 -0.00520948 0.00394869 0 0 0 -0.000190786 8.68796e-05 3.83721e-05 -0.000546252 -5.12199e-05 -0.000297668 -0.0425137 -0.046973 0.0330987 0.004 300 0 
477 1 1 -0.0445897 -0.000710225 0.00396439 0 0 0 2.49267e-06 1.10371e-05 9.07899e-06 -0.000168507 -4.0793e-05 -1.80061e-05 0.00143229 -0.00546671 -0.0140698 0.004 300 0 
140 1 1 -0.0352688 -0.00371637 0.00387168 0 0 0 4.47348e-05 2.48367e-05 0.000112894 -0.000304466 -3.49227e-05 -0.000186059 -0.00277331 0.00612899 -0.00593967 0.004 300 0 
119 1 1 -0.0273901 -0.00269729 0.00396321 0 0 0 3.48167e-05 4.0414e-05 7.22877e-05 -0.000377786 -4.75134e-05 -4.49035e-05 -0.00994626 0.02136 0.00723616 0.004 300 0 
207 1 1 -0.0194919 -0.0016877 0.00389405 0 0 0 -8.07858e-06 0.000145044 -3.15995e-05 -0.000237049 4.37668e-05 -2.62318e-05 -0.0331077 -0.00145515 0.00240416 0.004 300 0 
69 1 1 -0.0111584 -0.00264622 0.00392893 0 0 0 -6.51735e-05 9.42675e-05 -1.66874e-05 -0.000137011 -1.63701e-05 -0.000167797 -0.019487 -0.0113417 0.0143836 0.004 300 0 
221 1 1 0.00874705 -0.00448537 0.00393163 0 0 0 9.82837e-05 0.000189655 0.000130439 -4.82552e-06 -0.000130494 -0.000118333 -0.0440302 0.0227204 -0.0308091 0.004 300 0 
457 1 1 0.0163526 -0.00207988 0.00396 0 0 0 -8.47547e-05 0.000202924 8.73152e-05 -0.000150085 -6.67182e-05 4.5613e-05 -0.0527604 -0.0275001 0.0615622 0.004 300 0 
155 1 1 0.0378923 -0.0022507 0.00393517 0 0 0 0.000122677 0.000927757 0.000605536 0.000820943 0.000470487 -0.000728066 -0.190848 0.0120324 0.0578874 0.004 300 0 
665 1 1 0.0459172 -0.00307884 0.00394192 0 0 0 0.000299929 -7.71296e-05 0.000694499 0.000603923 -0.00121237 -0.000326437 0.0704275 0.075886 0.25683 0.004 300 0 
120 1 1 0.00918357 -0.0371097 0.00876436 0 0 0 -0.000316711 0.000290494 0.000211666 0.000511595 0.000402718 -0.000177801 -0.0375776 -0.0335637 -0.0144378 0.004 300 0 
9 1 1 -0.0247136 -0.033359 0.00937718 0 0 0 0.000356636 -3.71176e-05 -4.68456e-05 -0.00039667 -0.000104614 -9.60212e-05 -0.0303256 0.00554061 0.0271435 0.004 300 0 
101 1 1 -0.0188647 -0.0277193 0.00955225 0 0 0 0.000392267 -1.73619e-05 -8.72031e-05 -0.000173164 -0.00023999 0.000250457 -0.0247737 0.0053856 -0.0618065 0.004 300 0 
48 1 1 0.0221936 -0.0292933 0.00922442 0 0 0 0.000228038 -0.000482436 -0.00122745 0.00024148 -0.000327254 3.29464e-05 0.077143 0.484012 -0.233843 0.004 300 0 
75 1 1 0.0293564 -0.0261749 0.00787314 0 0 0 0.000143847 -0.000304406 -0.000335358 -0.000387581 -0.000997035 -0.00167408 0.0156112 -0.0192282 0.116561 0.004 300 0 
46 1 1 -0.0327982 -0.0205735 0.0095838 0 0 0 0.000204102 -0.000220095 -5.93559e-05 -0.000130445 -0.000209367 -0.000458856 0.0357064 0.0103048 0.0264986 0.004 300 0 
33 1 1 -0.0130335 -0.0220257 0.00949637 0 0 0 0.00021491 0.000329135 -0.000103629 -0.00022553 0.000480032 8.40857e-05 -0.0642116 -0.0180825 0.0306819 0.004 300 0 
11 1 1 0.0268904 -0.0187445 0.00924285 0 0 0 -0.000166107 -0.000428193 0.000175657 2.9495e-05 -0.00102123 -0.00114846 0.0161185 0.127412 0.0148894 0.004 300 0 
71 1 1 -0.0372789 -0.00953881 0.00877223 0 0 0 5.08938e-05 -5.20262e-05 3.79779e-05 3.15309e-05 -6.57905e-05 -2.50984e-06 0.0318035 -0.0169475 0.0196482 0.004 300 0 
62 1 1 -0.0228072 -0.00771214 0.00813895 0 0 0 9.16383e-05 3.51667e-05 -0.000194392 -0.000668273 6.08744e-05 -7.47473e-05 0.00249646 0.0200516 0.0134582 0.004 300 0 
19 1 1 -0.00970848 -0.00905652 0.00849039 0 0 0 -1.76854e-05 0.000246647 -7.51391e-05 -0.000108818 -0.000409132 -0.000167101 -0.0540314 -0.0167842 0.0543174 0.004 300 0 
187 1 1 0.00796783 -0.00987838 0.00975546 0 0 0 0.000205839 0.000424442 0.000202787 2.04956e-06 -0.000460328 -3.03474e-05 0.0168832 0.176436 -0.0845481 0.004 300 0 
157 1 1 0.0395832 -0.00752083 0.00962724 0 0 0 0.000507689 0.000753664 0.000571099 0.0004996 0.000142991 -0.000436776 0.251365 0.0946835 0.0973248 0.004 300 0 
18 1 1 0.00229001 -0.00405152 0.00852657 0 0 0 3.7335e-06 0.000159707 0.000258937 -7.93132e-05 0.000164122 -0.000182605 0.0382979 -0.0189603 0.0303696 0.004 300 0 
185 1 1 -0.00531018 -0.0457351 0.0104426 0 0 0 6.25504e-05 8.29613e-05 8.87325e-05 -3.3316e-05 -0.000127069 -5.61634e-05 -0.0122069 -0.0190625 -0.0649383 0.004 300 0 
83 1 1 0.00256824 -0.0459485 0.0112579 0 0 0 -4.22688e-05 -0.000119279 0.000340363 -7.12759e-06 7.67061e-05 0.000133943 0.0951098 -0.0352879 0.0276831 0.004 300 0 
58 1 1 -0.0218554 -0.0405822 0.0112761 0 0 0 0.000413387 -0.000171903 5.07469e-05 -0.000668562 2.61475e-05 -0.000246897 -0.0083098 -0.00795812 -0.108016 0.004 300 0 
105 1 1 -0.0135847 -0.0439657 0.010878 0 0 0 0.000296252 -9.29802e-05 3.31728e-05 -0.000156709 -1.79684e-05 0.000149757 0.0182731 0.0397872 -0.044218 0.004 300 0 
223 1 1 0.0103952 -0.04487 0.0106624 0 0 0 -0.000126849 0.000101081 0.00022139 6.43637e-05 0.000139077 0.000176962 -0.0227294 0.0536785 0.0144772 0.004 300 0 
217 1 1 0.0179394 -0.0424254 0.0108338 0 0 0 1.09334e-05 5.357e-05 -0.000215814 -0.000174013 -9.83577e-05 -0.000128327 -0.0745077 0.0317114 -0.0214142 0.004 300 0 
6 1 1 -0.0162599 -0.0350294 0.0113143 0 0 0 0.000433559 -4.16651e-05 1.59347e-05 -0.000647345 -0.000526964 -0.000141453 0.00266983 -0.000952958 0.134427 0.004 300 0 
151 1 1 -0.00801068 -0.0382601 0.0108135 0 0 0 0.000137795 0.000154406 5.92249e-05 -0.000254283 0.000113291 -0.000232051 -0.0121899 0.0109169 0.054392 0.004 300 0 
2 1 1 0.00044594 -0.0383077 0.0102721 0 0 0 -0.000382364 8.5642e-06 0.000188948 0.000145866 -0.000234231 -2.10876e-05 -0.00357979 -0.0235982 0.0755783 0.004 300 0 
117 1 1 0.0249154 -0.038733 0.0109209 0 0 0 8.7599e-05 -0.000128078 -0.00028352 0.000366866 -0.000201651 -5.05407e-05 -0.0130295 -0.00572339 -0.0539447 0.004 300 0 
13 1 1 -0.0323453 -0.0327541 0.0115379 0 0 0 0.000245753 -0.00013269 -8.48325e-05 -0.000253214 1.89598e-05 -0.000162442 -0.0323534 0.00297511 0.00314015 0.004 300 0 
193 1 1 -0.00982226 -0.0305001 0.0107718 0 0 0 0.000122873 0.000342801 2.41889e-05 -0.000833193 -0.000313803 -6.0453e-05 -0.0050686 -0.00552853 -0.011754 0.004 300 0 
47 1 1 -0.00133996 -0.0305462 0.0103852 0 0 0 -0.000283406 0.000335223 8.8981e-05 -0.00085058 -0.00076019 -0.000143313 -0.102273 0.0361577 -0.0500258 0.004 300 0 
153 1 1 0.00656564 -0.0300259 0.0113672 0 0 0 -0.000353586 0.000170965 1.63738e-05 0.000336075 0.00039578 -0.000758428 0.148472 -0.0123521 -0.0162491 0.004 300 0 
41 1 1 0.0148038 -0.0317936 0.0106516 0 0 0 -7.18938e-05 0.000287228 0.000189081 0.000634705 0.000200697 -0.000730025 0.100499 -0.00154541 0.0261134 0.004 300 0 
163 1 1 0.0311458 -0.0339211 0.0111306 0 0 0 0.000579556 -0.000379547 -0.000571511 0.000592121 -0.000197615 -0.0010198 -0.0182282 0.0251001 -0.0166472 0.004 300 0 
214 1 1 -0.0375021 -0.0268249 0.0107159 0 0 0 0.000214304 -0.000149811 -9.45796e-05 1.55017e-05 -6.89541e-05 -0.000170362 0.0152138 0.0571042 -0.0394601 0.004 300 0 
210 1 1 0.0364635 -0.0281028 0.0111157 0 0 0 0.000461281 -0.000287999 -0.00066147 0.000670752 0.000103088 -0.00116551 -0.0203446 -0.0928478 -0.0128302 0.004 300 0 
108 1 1 -0.0260985 -0.0246384 0.0109243 0 0 0 0.0004599 -8.51193e-05 -7.32389e-05 -7.96893e-05 -0.000290679 0.000100697 0.0396257 -0.00889947 -0.00253424 0.004 300 0 
40 1 1 -0.00550752 -0.0238694 0.0113342 0 0 0 -1.22848e-05 0.000660734 3.28519e-05 -0.000545794 -0.000373332 -0.000427008 0.109039 -0.0573844 -0.000929387 0.004 300 0 
55 1 1 0.00236932 -0.0232826 0.0108301 0 0 0 -4.30734e-05 0.000451394 8.57064e-05 0.000328414 -0.00053859 -0.000688872 -0.136753 0.0242047 -0.0530567 0.004 300 0 
91 1 1 0.0120889 -0.0243837 0.0101862 0 0 0 -0.000271143 0.000346075 0.000382532 3.87658e-05 8.89425e-05 -5.00464e-05 -0.122133 0.0577448 -0.0369905 0.004 300 0 
112 1 1 0.0192822 -0.0205363 0.0105001 0 0 0 -0.000286209 -0.000227945 0.000377768 0.000360072 -0.000826356 0.000474561 -0.00730043 -0.0480163 -0.105331 0.004 300 0 
178 1 1 0.0318547 -0.0225347 0.0144869 0 0 0 0.00075814 -0.000239009 -0.00113155 0.000417214 -0.00053025 0.000296189 0.11444 0.314703 0.130383 0.004 300 0 
131 1 1 0.0407731 -0.0214758 0.0110491 0 0 0 0.000228352 3.9132e-05 -0.000332872 -4.40164e-05 -0.000139467 -0.000385494 -0.0947252 -0.110178 0.138602 0.004 300 0 
160 1 1 -0.0414734 -0.0199364 0.0108145 0 0 0 0.000131816 -2.14684e-05 2.19262e-05 2.32295e-05 -4.82678e-06 -5.5841e-05 -0.00494012 0.00701067 0.0184639 0.004 300 0 
43 1 1 -0.0361112 -0.0150932 0.0142644 0 0 0 0.000112468 -0.000123251 -4.22659e-07 7.8812e-05 -0.00038626 -0.000175626 -0.0426527 0.00629966 -0.00909329 0.004 300 0 
4 1 1 -0.0270362 -0.0151158 0.0100725 0 0 0 0.00018904 -0.000264299 -6.82423e-05 -0.000266663 -1.28068e-05 -0.000143913 -0.0146153 -0.0131187 -0.0431956 0.004 300 0 
104 1 1 -0.0203039 -0.0192316 0.011196 0 0 0 0.000247726 -2.62734e-05 -7.97309e-05 -0.000194061 -6.77869e-05 6.4653e-05 -0.0241136 0.0528707 0.0813451 0.004 300 0 
20 1 1 -0.00746024 -0.0162247 0.01109 0 0 0 6.07326e-05 0.000713791 0.000356398 0.000181381 -0.000265057 -6.20943e-06 -0.0370585 -0.0252059 -0.0192584 0.004 300 0 
45 1 1 0.000825538 -0.0164505 0.0146062 0 0 0 0.000190309 0.000729359 0.000297887 -0.000151312 -0.000448611 -0.000616011 0.0638268 0.130645 -0.027454 0.004 300 0 
159 1 1 0.00795726 -0.0177012 0.0113548 0 0 0 4.42277e-05 0.000658297 -0.000115495 7.44504e-05 -7.45096e-05 -0.000207259 -0.0472952 -0.0639851 0.0389391 0.004 300 0 
136 1 1 0.034792 -0.0163454 0.0104674 0 0 0 8.45247e-06 -1.65451e-05 -0.000445673 -0.000939677 0.000435646 -1.78729e-05 0.0985138 0.0534758 -0.0607534 0.004 300 0 
177 1 1 -0.0443294 -0.0125252 0.0108182 0 0 0 5.58872e-05 -1.53295e-05 1.04064e-05 3.30755e-05 -4.17645e-05 2.91196e-08 -0.00415622 0.0103093 -0.0108197 0.004 300 0 
139 1 1 -0.0168221 -0.012111 0.0110403 0 0 0 -7.738e-05 5.05841e-05 -0.000176213 -0.000483861 0.000182554 0.00038584 -0.0349054 -0.00841812 -0.0334741 0.004 300 0 
211 1 1 -0.00209782 -0.0104162 0.0103097 0 0 0 4.91744e-05 0.000469961 0.000276463 -0.000111996 -0.000313092 -0.000403573 -0.103295 -0.0574122 -0.0142948 0.004 300 0 
54 1 1 0.0149219 -0.0138947 0.0108324 0 0 0 0.000303658 0.000310249 0.000100839 -0.000265313 -0.000760609 -0.000836004 -0.0425936 0.00603784 -0.0625426 0.004 300 0 
84 1 1 0.0232736 -0.0118021 0.0106583 0 0 0 -0.000377779 2.88106e-05 0.000167274 -0.000335847 -0.000706132 -0.000621799 -0.0852276 -0.0489775 -0.0921857 0.004 300 0 
180 1 1 0.0438172 -0.0141054 0.011044 0 0 0 0.000133659 0.000363585 0.00024524 -0.000256573 -4.73285e-05 -0.000924666 -0.152101 0.0295122 -0.241761 0.004 300 0 
103 1 1 0.0174483 -0.00636512 0.010575 0 0 0 -0.00026266 0.00019557 0.000293466 -0.000937402 -0.000726877 7.01295e-05 0.0667517 -0.172605 0.108075 0.004 300 0 
156 1 1 0.0308903 -0.00946671 0.0106299 0 0 0 -0.000405166 -0.000149753 1.34374e-05 -0.000417165 -4.88358e-05 -0.000282201 -0.0250675 -0.0745261 0.0872278 0.004 300 0 
197 1 1 -0.0457821 -0.00470768 0.0107636 0 0 0 2.49906e-06 3.21519e-05 1.6122e-05 -7.20517e-05 4.29707e-06 3.025e-05 -0.00282366 0.00613536 0.0166369 0.004 300 0 
87 1 1 -0.0386044 -0.00379995 0.0141434 0 0 0 -9.31406e-05 3.57102e-05 7.78182e-05 -0.00013208 0.000169741 -2.51828e-05 -0.0111348 -0.0200312 -0.0418143 0.004 300 0 
130 1 1 -0.0313603 -0.00387037 0.0107763 0 0 0 -3.22578e-05 0.000137937 0.000278637 -0.000592012 -0.000228741 -0.000185932 -0.0225961 -0.0499817 0.0632139 0.004 300 0 
604 1 1 -0.0224601 -0.000299592 0.0110773 0 0 0 -0.000145464 0.000116978 -1.42662e-05 -0.000418144 6.93536e-06 -9.14312e-05 0.0450606 -0.0263563 0.00655583 0.004 300 0 
146 1 1 -0.0155088 -0.00400622 0.0103898 0 0 0 -0.000163477 5.73665e-05 -8.31943e-05 -6.75037e-06 0.000140933 -0.000140681 0.075231 -0.0059171 -0.0342338 0.004 300 0 
57 1 1 -0.0051771 -0.00310613 0.0111934 0 0 0 -6.72215e-05 0.000258451 -1.04304e-05 5.1313e-05 -1.95757e-05 -0.000206701 0.0201177 0.00478476 0.00833839 0.004 300 0 
493 1 1 0.0117105 -0.00086744 0.0103566 0 0 0 -0.000214683 0.000344508 0.000326581 -0.000810522 -0.000640376 1.46768e-05 -0.0255518 0.0811915 -0.076761 0.004 300 0 
31 1 1 0.0250533 -0.00405499 0.0104557 0 0 0 -0.000366167 0.000159504 0.000459746 -0.000181437 -0.000711135 -0.00083245 -0.031686 0.059211 -0.0809243 0.004 300 0 
588 1 1 0.032604 -0.00175037 0.0105418 0 0 0 -0.000140025 -8.25297e-05 0.000542454 -0.000494537 -1.47059e-05 -0.00125933 0.165005 -0.0104771 -0.0518821 0.004 300 0 
63 1 1 0.0459253 -0.00328057 0.0119219 0 0 0 0.000321112 0.000158435 0.000602556 0.000543273 -0.000973797 -0.000220007 -0.131577 -0.012164 -0.0945476 0.004 300 0 
107 1 1 -0.00849533 -0.0452739 0.0176778 0 0 0 -0.000495241 0.000135761 -7.13145e-05 -0.00022259 -5.35818e-05 -0.00017176 -0.0512517 0.100385 0.102243 0.004 300 0 
222 1 1 -0.00141091 -0.0418038 0.0171194 0 0 0 -0.000801319 8.42764e-05 6.15649e-05 0.000165239 9.36067e-05 -2.4165e-05 -0.00937608 -0.123548 -0.0989736 0.004 300 0 
142 1 1 0.00616446 -0.0401461 0.0154148 0 0 0 -0.000742488 0.000272268 0.000185726 7.05516e-05 0.000267028 -0.000382448 0.00514834 -0.093631 0.0576565 0.004 300 0 
172 1 1 0.0116079 -0.0446397 0.0189693 0 0 0 -0.000576363 -0.000307145 -0.00136836 -0.000113739 0.000210277 -4.8514e-05 -0.196252 -0.550881 0.155944 0.004 300 0 
109 1 1 0.0203949 -0.041293 0.0183374 0 0 0 -0.000250357 -7.99433e-05 3.64164e-06 -0.000775568 -3.22629e-05 -0.000384663 0.083683 -0.112221 0.032411 0.004 300 0 
150 1 1 -0.0273273 -0.037083 0.0158759 0 0 0 0.000314853 5.9127e-05 7.55035e-06 -0.000433573 4.05416e-05 -0.00010496 -0.0148235 -0.0144073 0.0112089 0.004 300 0 
38 1 1 -0.0197779 -0.0373724 0.0182792 0 0 0 0.000345799 0.000276203 0.000196855 -0.000602197 -3.29053e-05 -0.000349379 -0.111111 -0.061555 -0.0250227 0.004 300 0 
199 1 1 -0.0118528 -0.0370338 0.0176519 0 0 0 0.000321711 0.000502581 0.00012911 -0.000320335 0.00019522 -0.000440226 -0.149372 0.048526 0.0591466 0.004 300 0 
93 1 1 0.0137617 -0.0377721 0.0156843 0 0 0 -0.00027673 -0.000248815 -0.000891736 -3.18911e-05 0.000263438 -0.000802213 0.111954 -0.229237 0.0800818 0.004 300 0 
64 1 1 0.0279819 -0.0365278 0.0179484 0 0 0 9.26221e-05 -0.000388092 -0.000704749 0.00161111 -0.000445732 -0.00120486 -0.0631901 -0.164106 -0.253791 0.004 300 0 
22 1 1 -0.0327432 -0.0324222 0.0194584 0 0 0 0.000230807 -3.3458e-05 -1.0621e-05 2.71035e-05 -8.8368e-05 -5.56407e-05 -0.0148549 -0.01794 -0.0441162 0.004 300 0 
174 1 1 -0.0224331 -0.0302103 0.016264 0 0 0 0.000508764 0.000115268 -0.00014623 -0.000689259 -1.31173e-05 -0.000220482 0.0162182 0.0402025 0.0097342 0.004 300 0 
32 1 1 -0.00428265 -0.0343934 0.0166838 0 0 0 -0.000258916 0.000320379 0.000306007 0.000277897 -0.000745787 8.55435e-05 0.0994526 0.0189855 0.0184403 0.004 300 0 
128 1 1 0.00347949 -0.0331412 0.0179953 0 0 0 -0.000620003 0.000270953 -0.000443286 -6.82145e-05 -0.000872445 -0.000569617 -0.053956 0.0290866 -0.205501 0.004 300 0 
88 1 1 0.0113772 -0.030475 0.0177101 0 0 0 -0.000348034 -0.000132875 -0.000633493 0.0009532 0.00020227 -0.000295197 0.104417 -0.113132 -0.125579 0.004 300 0 
137 1 1 0.0207543 -0.0338459 0.0156142 0 0 0 0.000699755 0.000321014 0.00048888 -0.000384166 -0.000433795 -0.000977654 0.0854453 0.173695 -0.206424 0.004 300 0 
154 1 1 0.0339845 -0.0311408 0.0180546 0 0 0 0.000200353 -0.000617659 -0.000424663 -0.000724011 0.00045118 -0.000286459 0.00915142 -0.100408 -0.0211654 0.004 300 0 
52 1 1 -0.0319911 -0.0252358 0.0161642 0 0 0 0.00039859 -0.000203342 -0.00017442 2.40474e-05 1.32188e-05 -0.000128689 -0.0289476 -0.0325457 0.0182312 0.004 300 0 
80 1 1 -0.00960277 -0.0265087 0.0175866 0 0 0 0.000285118 0.000403759 -6.61023e-05 -0.000542619 -0.000237186 -0.000198235 -0.0630393 0.112576 0.0917535 0.004 300 0 
125 1 1 -0.00115299 -0.0266982 0.0173697 0 0 0 -0.00048744 0.00053174 -0.000309704 -0.0013769 -0.000628763 -0.000860249 0.0538008 -0.0491236 0.0738943 0.004 300 0 
72 1 1 0.0179367 -0.0264362 0.01562 0 0 0 3.91731e-05 0.000210156 0.000511755 1.32163e-05 -0.000702422 0.000740121 -0.123598 -0.1116 0.333198 0.004 300 0 
34 1 1 0.0269532 -0.0287349 0.0154524 0 0 0 0.000406163 -0.00111874 -0.00166255 0.000238713 -0.00062938 0.00128034 0.129886 -0.350348 0.195273 0.004 300 0 
218 1 1 -0.0395973 -0.0234614 0.0176937 0 0 0 0.000224392 -0.000160562 -0.000131595 0.000100832 -0.000123924 -0.00021281 0.038536 0.0367711 -0.0397183 0.004 300 0 
70 1 1 -0.0247183 -0.0230225 0.0185702 0 0 0 0.000291121 -5.34585e-05 -5.24587e-05 -3.65822e-05 4.17684e-05 0.000199465 -0.0197736 0.00736284 0.0569215 0.004 300 0 
132 1 1 -0.0171324 -0.0242619 0.0164737 0 0 0 0.000404723 0.000161368 -5.11402e-05 -0.000496418 -0.000299966 0.000248629 0.00180579 -0.0581425 0.00115061 0.004 300 0 
196 1 1 0.0071715 -0.0237808 0.0170767 0 0 0 0.000170116 0.000593033 -0.000583588 0.000759261 -0.000275943 -0.000924998 -0.0702329 0.0528009 -0.120815 0.004 300 0 
362 1 1 0.024393 -0.0214396 0.0171202 0 0 0 -0.000273643 -0.000511897 -0.0010866 0.000800768 -0.00111902 0.000976724 0.249461 -0.271446 -0.283162 0.004 300 0 
49 1 1 0.0387619 -0.0248047 0.0179807 0 0 0 0.000116615 -0.000752324 -0.000461721 -0.000769214 0.00110683 0.000636972 0.0428899 -0.00780491 0.109213 0.004 300 0 
173 1 1 -0.0431203 -0.0163103 0.0177152 0 0 0 9.8394e-05 -3.65788e-06 3.22717e-05 7.40988e-05 -8.41903e-05 -4.02271e-05 -0.00175215 -0.00465904 0.00280121 0.004 300 0 
50 1 1 -0.0295075 -0.016763 0.0182825 0 0 0 0.00011326 -0.0001133 -3.58626e-05 3.09604e-05 -0.00026706 4.36225e-05 -0.0143597 0.0272339 -0.0338116 0.004 300 0 
202 1 1 -0.0134635 -0.0172148 0.0161103 0 0 0 -6.0998e-05 0.000464733 0.00014124 5.86392e-05 -0.000224119 0.000168848 -0.0169564 -0.0621645 0.158653 0.004 300 0 
86 1 1 -0.00524313 -0.0199246 0.0183805 0 0 0 -0.000330254 0.000691388 -0.000258136 -0.000718204 0.000167952 -0.000952656 0.0975043 -0.27035 -0.0210631 0.004 300 0 
129 1 1 0.0138724 -0.0196336 0.0162873 0 0 0 -0.000182031 0.000572334 0.000130787 0.000261084 -0.000111305 -0.00017042 -0.0206837 -0.0608973 -0.184085 0.004 300 0 
82 1 1 0.0291387 -0.0151456 0.0159349 0 0 0 0.000159118 -0.000329497 0.000285368 -0.000646186 -0.00111632 -0.00113975 0.0433666 0.00862274 0.218477 0.004 300 0 
1 1 1 0.0424647 -0.0178097 0.0178774 0 0 0 -0.000568717 -0.000137013 0.000206972 -8.10005e-05 0.000774299 -0.000492925 0.220237 -0.051018 0.136759 0.004 300 0 
168 1 1 -0.0224802 -0.0136301 0.0164135 0 0 0 -6.45954e-05 -8.80176e-05 -8.898e-05 -0.00012652 7.49642e-05 0.000242877 -0.00629736 -0.0228562 0.084155 0.004 300 0 
121 1 1 -0.00515998 -0.012031 0.0174548 0 0 0 0.000196175 0.00075069 0.00046355 -0.000433105 -0.0003559 -0.000570292 0.0168291 -0.0252956 -0.0757589 0.004 300 0 
28 1 1 0.008133 -0.0139644 0.018324 0 0 0 -0.000287084 0.000511408 7.66167e-05 -0.000282454 3.48835e-05 0.000133214 0.146739 -0.10096 -0.271776 0.004 300 0 
42 1 1 0.0200567 -0.0148182 0.0172685 0 0 0 -0.000362166 0.000267365 7.41417e-05 0.000807475 -0.000440174 -0.000386365 0.0514548 0.0629348 0.201547 0.004 300 0 
60 1 1 0.0376337 -0.011649 0.0161603 0 0 0 8.57592e-05 -0.000538868 0.000136379 -0.000834081 0.000756033 0.00134445 0.0476884 -0.279501 -0.323041 0.004 300 0 
135 1 1 -0.0452102 -0.00864318 0.0176856 0 0 0 7.95147e-05 3.40361e-05 6.36054e-05 2.3238e-05 -4.63101e-05 5.95019e-05 0.00439294 -0.00822488 0.00864731 0.004 300 0 
81 1 1 -0.0376103 -0.00944665 0.0199516 0 0 0 0.000161966 1.33049e-05 0.000206134 -0.000198576 -0.000543777 -1.80485e-06 -0.0252765 0.00527307 -0.0359929 0.004 300 0 
190 1 1 -0.0303513 -0.00906212 0.016682 0 0 0 7.53024e-05 4.27397e-05 0.000210916 -0.000467456 -0.000510513 -0.00038198 0.0642274 -0.00134654 0.0462487 0.004 300 0 
7 1 1 -0.0204517 -0.00598394 0.0162516 0 0 0 -0.000332133 5.31326e-06 -7.69787e-05 0.00014317 0.000287464 0.000215888 -0.00489566 -0.0252584 -0.00965699 0.004 300 0 
145 1 1 -0.0119935 -0.0083237 0.0160604 0 0 0 -9.22154e-05 0.000231541 -5.84619e-05 0.000339125 0.000396799 0.000203832 -0.0550412 -0.101614 0.209271 0.004 300 0 
186 1 1 0.0021314 -0.00892473 0.0168637 0 0 0 -8.78702e-05 0.000943988 0.000545513 -0.000365131 -0.00059941 -0.000899494 0.0489487 0.0354353 0.165753 0.004 300 0 
56 1 1 0.014426 -0.00917338 0.0173928 0 0 0 -0.000712082 0.000168206 0.000171601 0.000126009 -0.000566475 0.000390574 -0.245249 -0.00369162 0.202829 0.004 300 0 
191 1 1 0.0221427 -0.00719633 0.0170872 0 0 0 -0.000814189 0.00047286 0.000309355 0.000966537 -0.000413825 -0.000507317 0.0239509 -0.105231 -0.0926751 0.004 300 0 
208 1 1 0.0315237 -0.00611211 0.017803 0 0 0 -0.000973101 0.000151984 0.00021014 -0.000166958 0.000239627 0.00101251 0.0244366 0.0167889 -0.315318 0.004 300 0 
92 1 1 0.0451161 -0.00920198 0.0172053 0 0 0 -6.75847e-05 -0.00079922 0.000781163 -0.00016133 -0.000406081 0.00136982 0.144558 0.11811 0.274249 0.004 300 0 
192 1 1 -0.046078 -0.000753049 0.0176249 0 0 0 -4.54716e-06 4.61789e-05 5.55673e-05 -2.39522e-05 -7.01616e-05 0.000102905 -0.00238196 -0.00795642 0.00464286 0.004 300 0 
462 1 1 -0.0271597 -0.00181422 0.0172862 0 0 0 -0.000214049 0.000121084 2.27498e-05 -0.000320535 -0.000289693 -6.41281e-05 -0.0662494 0.0564024 0.0135218 0.004 300 0 
450 1 1 -0.0128202 -0.000775645 0.0182551 0 0 0 -0.000401537 0.000189343 -4.94167e-05 0.000899428 0.000380608 -4.62582e-05 0.0273544 0.0266053 -0.11796 0.004 300 0 
111 1 1 -0.00563132 -0.00408527 0.0190528 0 0 0 -0.000100991 0.000271543 1.42867e-05 0.000350439 -2.36867e-05 0.000373603 -0.00276636 -0.0686467 0.203315 0.004 300 0 
622 1 1 0.00100563 -0.00112904 0.0157702 0 0 0 -0.000100571 0.000650799 9.1746e-05 0.000145161 -0.000207801 0.00013635 -0.164549 -0.0145588 -0.0590962 0.004 300 0 
106 1 1 0.0083634 -0.00404245 0.0167909 0 0 0 -0.000168926 0.000884623 0.000620174 7.02353e-05 -0.00108361 -0.000179667 0.0878513 0.0951534 -0.285217 0.004 300 0 