ITEM: TIMESTEP
32000
ITEM: NUMBER OF ATOMS
890
ITEM: BOX BOUNDS mm mm mm
-0.05 0.05
-0.05 0.05
0 0.15
ITEM: ATOMS id type type x y z ix iy iz vx vy vz fx fy fz omegax omegay omegaz radius f_Temp[0] f_heatFlux[0] 
59 1 1 -0.000715551 -0.0460982 0.00395596 0 0 0 2.24278e-06 2.70362e-06 3.92226e-06 1.42507e-06 5.24952e-08 4.28509e-06 0.000404835 0.00121703 -0.000829581 0.004 534.16 0.831482 
170 1 1 -0.0173498 -0.0426414 0.003973 0 0 0 6.2357e-07 1.54688e-06 1.19532e-06 4.12739e-06 -3.2574e-07 2.20106e-06 0.000279341 -3.70056e-06 0.000395529 0.004 382.585 5.25194 
15 1 1 -0.00975016 -0.0449638 0.00393396 0 0 0 2.53338e-06 3.3821e-06 -6.04665e-07 4.7039e-06 2.36222e-06 7.76105e-07 -0.000875493 0.000757908 -2.75885e-05 0.004 421.247 4.86397 
116 1 1 0.00648761 -0.0428197 0.00395867 0 0 0 -7.55523e-07 5.76409e-06 1.40813e-06 -1.59507e-06 4.0794e-06 2.64403e-06 -0.00118229 -0.000570233 0.00151994 0.004 623.815 -2.62433 
158 1 1 0.0143627 -0.0437626 0.00389978 0 0 0 -1.36888e-06 4.97543e-06 2.89417e-06 -3.31015e-06 4.39982e-06 5.54107e-06 -0.000263799 -0.000237987 -0.000316317 0.004 682.323 -4.44567 
98 1 1 0.0216779 -0.0406527 0.00394259 0 0 0 -1.74893e-06 3.6903e-06 3.80369e-06 -6.87542e-08 1.77976e-06 2.64186e-06 0.000288414 -0.000259856 9.76383e-05 0.004 728.075 -4.80572 
169 1 1 -0.0244315 -0.0390659 0.00391425 0 0 0 8.63835e-08 1.16616e-06 2.3603e-06 2.96377e-06 -1.61187e-06 7.15304e-07 0.000228732 -2.6111e-05 -3.7512e-05 0.004 345.404 4.41721 
89 1 1 -0.011812 -0.0369235 0.0039546 0 0 0 -5.04665e-07 4.56138e-06 1.84033e-06 5.66482e-06 3.27217e-06 3.18336e-06 -0.00122111 -2.29276e-05 -0.000132615 0.004 415.498 4.17725 
152 1 1 -0.00418343 -0.0390223 0.0039052 0 0 0 -7.5528e-07 6.46979e-06 5.32011e-06 7.84919e-06 5.04042e-06 8.32469e-06 -0.00114069 -0.000173968 0.00117658 0.004 491.992 2.1561 
23 1 1 0.0153483 -0.0358821 0.00391125 0 0 0 -2.99957e-06 8.0055e-06 5.7892e-06 -1.62749e-06 4.08926e-06 6.58445e-06 -0.000625112 -0.000221668 -0.000131714 0.004 695.083 -4.64242 
118 1 1 -0.0307533 -0.0342397 0.00392724 0 0 0 -2.21405e-06 8.9751e-07 9.87464e-07 1.74684e-06 -2.351e-07 1.81662e-06 -0.000435158 -0.000562259 0.00066593 0.004 320.929 3.15913 
30 1 1 -0.0188787 -0.0333717 0.00395273 0 0 0 -8.49463e-07 3.13083e-06 2.72501e-06 4.35892e-06 -5.76919e-06 8.31437e-07 -0.000242921 0.000175523 0.000492249 0.004 360.197 4.41121 
215 1 1 -0.00603631 -0.0313238 0.00390657 0 0 0 -2.63196e-06 5.97226e-06 2.12352e-06 6.57118e-06 1.50485e-06 4.57812e-06 -0.00100274 -3.40849e-05 -0.000743477 0.004 464.968 3.01457 
74 1 1 0.0018414 -0.0338193 0.00390675 0 0 0 -3.81917e-06 1.11225e-05 4.38891e-06 7.09364e-06 3.03116e-06 5.69074e-06 -0.0015229 -0.000833456 1.41262e-06 0.004 558.629 -0.187048 
24 1 1 0.00917857 -0.0308342 0.0039203 0 0 0 -3.93253e-06 1.05494e-05 3.34425e-06 1.30328e-06 4.78741e-06 7.31908e-06 -0.00155046 -0.000427328 -0.000363656 0.004 649.682 -3.37149 
198 1 1 0.0259423 -0.0339524 0.00395548 0 0 0 -4.61783e-06 8.21682e-06 5.40456e-06 2.0119e-06 -2.51567e-07 2.57082e-06 -0.00119905 -0.000595781 0.000766518 0.004 759.315 -4.14356 
161 1 1 0.0335301 -0.0316074 0.00391356 0 0 0 -2.28682e-06 6.25515e-06 3.13642e-06 1.30901e-06 2.85594e-06 1.64337e-06 -0.000726887 0.000146236 -0.000893315 0.004 778.716 -3.01502 
8 1 1 -0.0322699 -0.0264156 0.00398404 0 0 0 -3.08057e-06 -2.12262e-06 -6.91534e-07 4.5568e-06 1.08695e-06 3.06665e-06 0.000300544 1.85101e-05 -0.00064244 0.004 316.571 2.6298 
12 1 1 -0.0244143 -0.0276959 0.00386436 0 0 0 -4.21767e-06 -1.31114e-06 1.67332e-06 4.88076e-06 -4.29656e-06 3.33194e-06 0.000242145 -0.000862886 0.00102241 0.004 336.426 3.84515 
188 1 1 -0.0131742 -0.0277762 0.00396586 0 0 0 -3.1036e-06 5.11647e-06 1.75085e-06 7.2208e-06 -1.28986e-05 2.72721e-06 -0.000927583 1.84611e-05 0.000630522 0.004 380.275 4.66938 
77 1 1 -0.000100247 -0.0260809 0.00389412 0 0 0 -8.64287e-06 1.12876e-05 1.67201e-06 6.2571e-06 4.00777e-06 5.02538e-06 -0.00178658 -0.00214884 0.00251778 0.004 539.988 0.438841 
113 1 1 0.0165643 -0.0280203 0.00388656 0 0 0 -5.00222e-06 1.05709e-05 4.73934e-06 2.84058e-06 9.00099e-07 6.07351e-06 -0.00112135 -0.00110254 0.000616672 0.004 711.861 -4.38329 
183 1 1 0.0384541 -0.0253742 0.00393846 0 0 0 -1.0638e-06 3.6251e-06 2.59765e-06 9.91532e-07 3.41704e-06 1.965e-06 -6.09971e-05 0.000217919 -0.000339913 0.004 789.405 -1.95433 
162 1 1 -0.0396311 -0.023418 0.00390782 0 0 0 -8.07984e-07 -3.41102e-07 7.02807e-07 4.29818e-06 3.44912e-06 3.59133e-06 4.45643e-05 -0.00014172 0.00016963 0.004 307.436 1.54417 
53 1 1 -0.027206 -0.0202486 0.00395166 0 0 0 -2.62476e-06 -5.78626e-06 1.56393e-07 7.31083e-06 -4.39905e-06 3.53434e-06 0.000615744 -0.000282697 -0.000539932 0.004 324.048 3.14377 
148 1 1 -0.0187584 -0.0220642 0.00393813 0 0 0 -6.70081e-06 1.11402e-06 4.45169e-07 1.07517e-05 -1.16298e-05 6.96314e-06 -0.000516407 -0.000780751 -7.29867e-05 0.004 356.13 4.70432 
195 1 1 -0.00727817 -0.02155 0.00394563 0 0 0 -1.09383e-06 8.25501e-06 8.66716e-07 1.64612e-05 -3.30253e-06 -4.69464e-07 -0.000981426 -0.00047539 0.00337552 0.004 443.755 4.28531 
179 1 1 0.0073663 -0.0231031 0.0039427 0 0 0 -9.82489e-06 1.02304e-05 -5.33966e-07 5.12023e-06 4.45644e-06 6.61247e-06 -0.000859482 -0.0019644 0.00178703 0.004 649.402 -3.57894 
95 1 1 0.0148506 -0.02031 0.00393206 0 0 0 -8.44859e-06 1.29392e-05 3.69325e-06 6.55081e-07 4.33915e-06 5.61959e-06 -0.00135413 -0.000926497 9.61026e-06 0.004 707.606 -4.37977 
76 1 1 0.0230028 -0.0233057 0.0039747 0 0 0 -4.88298e-06 1.25888e-05 5.23637e-06 3.69702e-06 1.11713e-06 2.69235e-06 -0.00189698 -0.00101251 9.03344e-05 0.004 763.353 -3.81596 
100 1 1 0.0325586 -0.0200896 0.00388591 0 0 0 -9.91294e-07 1.00372e-05 5.26631e-06 4.37971e-07 8.30784e-06 6.97682e-06 -0.0015224 0.000283869 -0.00084014 0.004 784.219 -2.43724 
65 1 1 -0.0430742 -0.0162802 0.00393145 0 0 0 -1.21681e-06 -1.03413e-06 3.64221e-07 3.16989e-06 3.81914e-06 2.86922e-06 0.000216872 -0.000464764 2.30718e-06 0.004 304.332 1.03477 
102 1 1 -0.0351583 -0.0155178 0.00394448 0 0 0 -2.78023e-07 -8.02352e-06 -9.81562e-07 8.16844e-06 -1.58428e-06 7.07325e-06 0.00144016 0.000937559 -0.00183028 0.004 309.685 1.75277 
213 1 1 -0.0132588 -0.0162738 0.00397363 0 0 0 -1.00543e-05 9.05019e-07 -7.10063e-07 6.23011e-06 -1.22151e-05 1.52648e-06 0.000234849 -0.00164097 -0.000293699 0.004 382.337 5.14656 
10 1 1 0.00114846 -0.0182524 0.00474998 0 0 0 -1.358e-05 1.23335e-05 1.95055e-06 4.87837e-06 2.36438e-06 4.43399e-06 0.000444559 0.00212332 -0.00176562 0.004 570.232 -0.830871 
5 1 1 0.00879792 -0.0152554 0.00390311 0 0 0 -8.31766e-06 1.32125e-05 1.25971e-06 8.05181e-07 2.26164e-06 3.57233e-06 -0.00121467 -0.000841699 -0.000694243 0.004 660.148 -3.66224 
96 1 1 0.0211693 -0.0155243 0.00395647 0 0 0 -2.88493e-06 1.11431e-05 2.25802e-06 -6.75525e-06 3.48826e-06 7.33824e-06 -0.00155962 -0.00073354 -0.00126811 0.004 756.686 -3.85581 
167 1 1 0.0421924 -0.0183683 0.00392111 0 0 0 -3.39438e-07 3.01654e-06 1.73655e-06 -2.06031e-06 3.08025e-06 8.57698e-07 -0.000457981 -0.000181792 -0.000346977 0.004 795.722 -1.03881 
124 1 1 -0.029011 -0.0104716 0.0039479 0 0 0 -7.31896e-06 -5.41199e-06 -9.55878e-07 1.46157e-05 -8.02947e-06 6.59678e-07 0.00138951 -0.00108522 0.0033669 0.004 321.474 2.80414 
220 1 1 -0.0217759 -0.0144543 0.00398044 0 0 0 -5.76082e-06 -2.50251e-06 -2.00694e-06 7.11056e-06 -6.14397e-06 9.90506e-07 -0.000949854 -0.000448452 0.00210526 0.004 342.24 3.78899 
144 1 1 -0.00535516 -0.0138038 0.00388175 0 0 0 -1.17427e-05 1.12374e-05 1.33653e-06 1.17899e-06 -1.84847e-06 4.58812e-06 -0.00173184 -0.00220586 0.000592882 0.004 494.555 1.90242 
26 1 1 0.00255574 -0.010463 0.00390565 0 0 0 -9.58976e-06 1.02807e-05 -4.41385e-07 -1.5654e-06 1.58495e-07 3.31244e-06 -0.00131281 -0.000377873 0.00134464 0.004 576.415 -1.079 
194 1 1 0.0287353 -0.0131031 0.00393076 0 0 0 -1.1692e-06 1.12607e-05 3.55199e-06 -5.48324e-06 5.84458e-06 9.23358e-06 -0.00112629 -0.000601932 0.00118887 0.004 779.888 -2.76198 
37 1 1 0.0366701 -0.0122308 0.00393301 0 0 0 5.66986e-06 7.96755e-06 2.4715e-06 -4.69128e-06 1.33767e-05 6.85351e-06 -0.0020823 0.00127303 -0.00380314 0.004 793.117 -1.41665 
219 1 1 0.0447285 -0.0108715 0.00390888 0 0 0 1.06979e-06 2.65797e-06 1.18737e-06 -4.7267e-06 2.77816e-06 -7.58127e-07 -0.000523586 0.000306563 -0.000223404 0.004 797.876 -0.633555 
636 1 1 -0.0451998 -0.00864275 0.0039177 0 0 0 -3.88648e-06 -1.2112e-06 -2.52154e-07 -1.42775e-06 2.94059e-06 3.71877e-07 0.000115149 -0.000734258 0.000885957 0.004 302.184 0.626294 
39 1 1 -0.0161466 -0.00885107 0.00388988 0 0 0 -1.20453e-05 2.17586e-06 -2.09277e-06 2.6358e-06 -8.23745e-06 5.54037e-06 -0.000206694 -0.00163809 0.000432553 0.004 382.613 4.00718 
171 1 1 -0.00395983 -0.00597829 0.00392043 0 0 0 -1.17974e-05 7.94053e-06 -2.91211e-06 -1.46252e-06 -3.56591e-06 4.36608e-06 -0.000900985 -0.00134597 -0.000940418 0.004 501.653 1.53219 
200 1 1 0.0146298 -0.00986522 0.00396374 0 0 0 -3.35985e-06 1.11911e-05 1.4561e-06 -6.95842e-06 4.51429e-06 7.17952e-06 -0.00184349 -0.000771049 -0.000966269 0.004 715.299 -4.59205 
21 1 1 0.022252 -0.00762164 0.00394332 0 0 0 -1.37457e-06 1.09158e-05 -2.13232e-07 -7.73935e-06 4.13775e-06 8.38038e-06 -0.00165176 -0.000373885 0.00102992 0.004 759.714 -3.88934 
17 1 1 0.0298457 -0.00520719 0.00394871 0 0 0 -1.11615e-06 1.13494e-05 5.10277e-07 -7.41555e-06 2.43055e-06 1.12331e-05 -0.00177345 -0.000518773 -0.00106507 0.004 780.323 -2.85074 
477 1 1 -0.0445832 -0.000710819 0.00396285 0 0 0 -8.338e-06 -2.44341e-06 3.44672e-07 -2.92198e-06 3.73173e-06 -1.43433e-06 0.000265637 -0.001874 -0.000571476 0.004 302.167 0.588062 
140 1 1 -0.0352672 -0.00371827 0.00387248 0 0 0 -1.03212e-05 -6.03151e-06 -3.95833e-06 1.23033e-06 3.18512e-06 6.61718e-07 0.000819457 -0.00203085 0.00266884 0.004 311.634 1.77867 
119 1 1 -0.0273891 -0.00269833 0.0039639 0 0 0 -1.40246e-05 -1.41744e-06 3.94329e-06 2.8331e-06 -5.34544e-06 3.39004e-06 -0.000518467 -0.000247139 -0.00121914 0.004 328.744 2.98575 
207 1 1 -0.0194911 -0.00168727 0.00389511 0 0 0 -1.61648e-05 -1.20539e-06 -8.17985e-07 2.55405e-06 -1.01221e-05 6.97719e-06 0.00061726 -0.00241953 0.00115941 0.004 362.652 3.88334 
69 1 1 -0.0111572 -0.00264551 0.00393006 0 0 0 -1.38822e-05 4.34723e-06 -2.87549e-06 -5.57023e-07 -7.87676e-06 6.585e-06 -0.000555947 -0.00192938 0.000761451 0.004 424.744 3.62078 
221 1 1 0.00874807 -0.0044899 0.00393199 0 0 0 -3.04354e-06 9.79304e-06 -3.44741e-06 -1.01295e-05 3.73441e-06 4.80397e-06 -0.00204433 -0.000134952 0.00163236 0.004 672.714 -4.16479 
457 1 1 0.0163506 -0.00208062 0.00395926 0 0 0 -1.86925e-06 1.04528e-05 -3.77838e-06 -9.12845e-06 2.06301e-06 5.91075e-06 -0.00103816 -0.000650842 -0.000140206 0.004 728.368 -4.77431 
155 1 1 0.0378912 -0.00224688 0.00393689 0 0 0 3.47217e-06 8.96368e-06 3.29589e-06 -2.77191e-06 8.48586e-06 6.08399e-06 -0.00116976 0.000743165 0.00215389 0.004 793.517 -1.28806 
665 1 1 0.0459183 -0.00307627 0.0039426 0 0 0 -1.84981e-06 2.31046e-06 1.60055e-06 -5.28214e-06 9.42544e-07 1.33789e-06 0.000153989 -0.000458817 0.000655756 0.004 797.743 -0.640736 
120 1 1 0.00918487 -0.0371092 0.0087693 0 0 0 -1.04605e-05 1.53013e-05 5.40231e-06 -1.4508e-06 5.91177e-06 1.1663e-05 -0.000283947 -0.00138451 -0.000437627 0.004 653.093 -3.67173 
9 1 1 -0.0247147 -0.033359 0.00937621 0 0 0 -4.07033e-06 3.55955e-06 3.20642e-06 6.50663e-06 -4.15182e-06 3.00255e-06 -0.00105571 -0.00094228 0.000730429 0.004 337.818 4.06642 
101 1 1 -0.0188615 -0.0277191 0.00955145 0 0 0 -9.36792e-06 6.74312e-06 4.19806e-06 8.16938e-06 -1.24325e-05 6.64397e-06 -0.000359647 -0.000844668 0.00145842 0.004 355.508 4.45422 
48 1 1 0.0221998 -0.0293139 0.00920028 0 0 0 -7.99062e-06 1.7691e-05 8.60028e-06 4.84056e-06 3.16326e-06 3.89936e-06 -0.00127988 0.000279574 -0.000786568 0.004 747.081 -4.0682 
75 1 1 0.02936 -0.0261745 0.00787418 0 0 0 -4.56017e-06 1.46304e-05 7.41923e-06 2.72223e-06 5.73602e-06 4.55729e-06 0.000727092 -0.000257521 -2.40788e-05 0.004 775.348 -3.07585 
46 1 1 -0.0327912 -0.0205809 0.00958347 0 0 0 -6.02543e-06 -2.00969e-06 1.42257e-06 1.05492e-05 3.39057e-06 1.34998e-05 -0.00233879 0.000225347 -0.000612895 0.004 316.248 2.43161 
33 1 1 -0.013034 -0.0220249 0.00949566 0 0 0 -8.21138e-06 8.12019e-06 -1.97157e-06 2.38879e-05 -8.74183e-06 4.34071e-07 -0.000484257 0.00146741 0.00258835 0.004 386.811 4.56859 
11 1 1 0.0268901 -0.0187448 0.00924455 0 0 0 -6.72376e-06 1.93254e-05 7.42157e-06 -5.97996e-06 4.07759e-06 1.50448e-05 -0.000774234 -0.000540821 -0.000484644 0.004 771.435 -3.26117 
71 1 1 -0.0372751 -0.00954697 0.00876622 0 0 0 -6.88016e-06 -5.42441e-06 -2.64924e-06 9.40085e-06 8.92298e-06 7.70924e-06 -0.00333519 -0.00277276 0.0023024 0.004 307.036 1.36048 
62 1 1 -0.0228082 -0.0077137 0.00814037 0 0 0 -1.80993e-05 -5.70092e-06 2.42582e-07 2.93285e-06 -1.25732e-05 6.9551e-06 0.00239333 0.000677075 0.00027532 0.004 343.561 3.70191 
19 1 1 -0.00970672 -0.00905635 0.00849065 0 0 0 -2.07229e-05 1.35952e-05 -2.43156e-06 6.13481e-07 -7.52802e-06 1.15056e-05 -0.00067736 0.000196287 0.00108225 0.004 455.792 2.68503 
187 1 1 0.00796715 -0.00988211 0.00975748 0 0 0 -8.70572e-06 2.38971e-05 -4.75577e-07 -2.30016e-05 5.40251e-06 4.76449e-06 -0.0013649 -0.000886366 -0.00239849 0.004 660.099 -4.76029 
157 1 1 0.0395817 -0.00751952 0.00963107 0 0 0 5.11371e-06 1.18681e-05 5.84024e-06 -1.41848e-05 1.4983e-05 1.15429e-05 0.00040561 -0.00350942 0.00120957 0.004 796.011 -0.964173 
18 1 1 0.00229114 -0.00404905 0.00852638 0 0 0 -1.21374e-05 1.50081e-05 -8.35622e-06 -8.74956e-06 -4.92788e-08 8.61085e-06 -0.000946897 -0.00186744 -0.00183289 0.004 573.781 -0.931227 
185 1 1 -0.00531149 -0.045735 0.0104438 0 0 0 -4.1836e-06 5.52546e-06 4.99001e-06 2.91533e-06 5.65489e-06 7.01172e-06 0.000609548 -0.00293348 1.57371e-05 0.004 482.288 2.58981 
83 1 1 0.00256736 -0.0459474 0.0112661 0 0 0 -7.16056e-06 7.59553e-06 6.12333e-06 -1.86131e-06 3.31369e-06 2.28504e-05 0.00112013 0.00286939 0.00110158 0.004 568.52 -0.942576 
58 1 1 -0.0218568 -0.0405821 0.0112769 0 0 0 -2.38879e-06 6.30276e-06 4.29919e-06 7.69577e-06 -6.94542e-06 -4.22343e-07 -0.000336541 -0.000906219 0.00128288 0.004 350.054 4.58769 
105 1 1 -0.013586 -0.043966 0.0108787 0 0 0 -3.71827e-06 6.04733e-06 1.8616e-06 1.40558e-05 -2.4788e-06 2.80693e-06 -0.000316659 -0.00179073 0.00178089 0.004 392.135 6.01958 
223 1 1 0.0103957 -0.0448674 0.0106706 0 0 0 -7.7422e-06 7.98415e-06 1.15776e-06 -3.67695e-06 4.82754e-06 1.7083e-05 -7.5353e-05 -0.00146794 0.000110655 0.004 644.829 -3.55142 
217 1 1 0.0179433 -0.0424254 0.0108281 0 0 0 -6.70483e-06 7.86522e-06 6.8539e-06 -2.35742e-06 6.47217e-06 7.64243e-06 0.000306541 -0.000523834 0.000265881 0.004 702.275 -4.71196 
6 1 1 -0.0162615 -0.0350312 0.0113114 0 0 0 -6.19697e-06 1.22836e-05 5.88652e-06 1.18497e-05 -8.36929e-06 5.72639e-06 -0.00121759 -0.00106609 0.000291934 0.004 378.032 4.652 
151 1 1 -0.00801308 -0.0382603 0.0108114 0 0 0 -6.74681e-06 1.38494e-05 7.86313e-06 9.90721e-06 7.04558e-06 1.01801e-05 -0.000631508 -0.00154125 -0.000306275 0.004 445.103 3.79906 
2 1 1 0.00044392 -0.0383081 0.0102709 0 0 0 -1.09382e-05 1.94602e-05 8.05095e-06 7.99024e-06 1.36911e-05 1.80308e-05 -0.00137384 -0.00147596 -0.000589199 0.004 548.602 0.105417 
117 1 1 0.0249196 -0.0387267 0.0109176 0 0 0 -5.19156e-06 8.34448e-06 5.87436e-06 -9.56844e-07 6.30223e-06 3.78166e-06 -0.000485275 0.000247042 5.35778e-05 0.004 746.837 -4.42106 
13 1 1 -0.0323455 -0.0327547 0.011537 0 0 0 -3.83758e-06 3.09203e-06 2.75711e-06 4.67812e-06 -9.29336e-07 3.84666e-06 0.000156859 0.000366147 3.78168e-05 0.004 320.717 3.04283 
193 1 1 -0.0098258 -0.0305006 0.0107684 0 0 0 -8.09082e-06 1.70829e-05 4.3385e-06 8.61017e-06 2.1019e-06 1.18479e-05 -0.00141228 -0.000855524 0.00119238 0.004 435.054 3.85658 
47 1 1 -0.00133758 -0.0305434 0.0103847 0 0 0 -1.15978e-05 2.08169e-05 5.20753e-06 1.19502e-05 6.45245e-06 1.39925e-05 -0.000271267 -0.000114635 0.000286699 0.004 533.654 0.736532 
153 1 1 0.00656463 -0.0300232 0.0113661 0 0 0 -1.4607e-05 2.41755e-05 5.32831e-06 7.96504e-06 1.68722e-05 1.63947e-05 -0.000878129 -0.00115762 0.00028308 0.004 622.749 -2.61785 
41 1 1 0.0148076 -0.0317915 0.0106539 0 0 0 -1.34739e-05 1.94383e-05 8.25604e-06 3.89632e-06 8.59775e-06 1.53873e-05 -0.000889305 -0.00181111 0.000477072 0.004 700.517 -4.58615 
163 1 1 0.0311566 -0.0339183 0.0111114 0 0 0 -4.4998e-06 9.24624e-06 5.41457e-06 1.64254e-06 6.2776e-06 4.02523e-06 0.000319936 -5.58688e-06 -0.000462542 0.004 774.635 -3.18711 
214 1 1 -0.0375015 -0.0268266 0.010714 0 0 0 -4.21699e-06 1.03214e-06 4.00372e-06 4.64084e-06 2.38824e-06 7.60596e-06 8.25392e-05 -0.00148544 0.000797475 0.004 312.061 2.09545 
210 1 1 0.0364694 -0.0280972 0.0111134 0 0 0 -3.01929e-06 7.46834e-06 5.69901e-06 6.58792e-07 5.82467e-06 3.69492e-06 3.68235e-05 0.000360451 -0.000381149 0.004 788.414 -2.00054 
108 1 1 -0.0260915 -0.0246404 0.0109304 0 0 0 -1.17769e-05 2.96656e-06 6.01048e-06 8.21192e-06 -1.07741e-05 1.08858e-05 -0.00207168 0.00027631 0.00059596 0.004 331.546 3.44445 
40 1 1 -0.00551112 -0.0238697 0.0113284 0 0 0 -1.34525e-05 2.15541e-05 2.04926e-06 1.60628e-05 8.77945e-07 7.12853e-06 -0.00112607 -0.00213114 -0.000286003 0.004 479 2.48888 
55 1 1 0.0023621 -0.0232852 0.0108248 0 0 0 -1.89559e-05 2.54636e-05 5.42266e-06 1.07059e-05 8.52365e-06 9.58572e-06 -0.000432812 -6.30131e-05 0.00103295 0.004 581.983 -1.0976 
91 1 1 0.0120918 -0.0243837 0.0101855 0 0 0 -1.76805e-05 2.39627e-05 7.05921e-06 3.78507e-06 1.21487e-05 1.67249e-05 -0.000288523 -0.000759627 0.000507443 0.004 681.786 -4.32218 
112 1 1 0.0192794 -0.0205361 0.0105072 0 0 0 -1.57458e-05 2.43388e-05 1.04189e-05 -7.20622e-06 8.85167e-06 1.36665e-05 -0.00117363 -0.000629461 -0.000212997 0.004 733.431 -4.58758 
178 1 1 0.0318658 -0.0225254 0.0144788 0 0 0 -6.92577e-06 1.71633e-05 9.58365e-06 -2.89181e-06 1.14831e-05 7.37595e-06 -0.00108451 -0.000448085 -0.000146317 0.004 785.075 -2.33402 
131 1 1 0.0407765 -0.0214683 0.0110512 0 0 0 -2.07113e-06 7.08445e-06 4.51503e-06 -2.4296e-06 7.48953e-06 4.68995e-06 0.000195844 0.000605154 -0.000708478 0.004 793.912 -1.30861 
160 1 1 -0.0414721 -0.0199398 0.0108131 0 0 0 -4.42068e-06 -1.71626e-06 9.75244e-07 5.92802e-06 5.5578e-06 5.87983e-06 0.000116501 -0.000617061 3.59936e-05 0.004 305.382 1.20855 
43 1 1 -0.0361086 -0.0151005 0.0142597 0 0 0 -1.06952e-05 1.21547e-06 5.14866e-06 7.19518e-06 1.47038e-05 1.81494e-05 0.00158689 -0.00136254 0.000944438 0.004 310.307 1.70798 
4 1 1 -0.0270343 -0.0151184 0.010074 0 0 0 -8.50434e-06 -4.26882e-06 -4.84094e-06 2.48788e-05 -1.14934e-05 1.60076e-06 -0.000318581 -0.00138807 0.000858793 0.004 327.568 3.20426 
104 1 1 -0.020301 -0.0192302 0.0111976 0 0 0 -1.20742e-05 2.97027e-06 7.40903e-07 1.74793e-05 -1.99875e-05 1.30059e-05 -0.000320247 -0.00113096 -0.000544316 0.004 352.661 4.13034 
20 1 1 -0.00745479 -0.0162218 0.0110954 0 0 0 -1.73895e-05 1.82058e-05 1.04093e-06 1.11748e-05 -6.43427e-06 9.58786e-06 0.000412945 -0.000165094 0.00136564 0.004 471.762 2.53215 
45 1 1 0.000825084 -0.0164513 0.0146045 0 0 0 -2.2512e-05 3.53232e-05 7.80191e-06 1.50274e-06 7.43898e-06 1.23609e-05 -0.00134698 0.00158718 0.000502203 0.004 559.961 -0.325307 
159 1 1 0.00795162 -0.0177076 0.0113469 0 0 0 -2.04299e-05 2.92553e-05 5.05625e-06 -1.85572e-06 1.25391e-05 1.215e-05 -0.00137329 -0.000876907 -0.000461499 0.004 652.15 -3.44885 
136 1 1 0.0347931 -0.0163372 0.0104655 0 0 0 -2.61744e-06 1.59149e-05 7.9589e-06 -9.25118e-06 1.24906e-05 1.285e-05 0.000528418 -0.00111398 -0.000314796 0.004 789.303 -1.88272 
177 1 1 -0.0443274 -0.0125289 0.0108104 0 0 0 -3.63321e-06 -2.42549e-06 -8.54213e-07 3.46762e-06 4.90901e-06 2.85212e-06 -0.000385549 0.000329035 -0.00035512 0.004 303.568 0.8756 
139 1 1 -0.016821 -0.0121092 0.0110438 0 0 0 -1.90431e-05 6.94729e-06 -1.78189e-06 8.5774e-06 -1.69548e-05 9.14857e-06 -0.00159733 -0.00183819 0.00330528 0.004 374.428 4.05462 
211 1 1 -0.00209538 -0.0104148 0.0103074 0 0 0 -2.14123e-05 2.30392e-05 -1.97871e-06 3.37832e-07 -1.81685e-07 1.05671e-05 -0.0026397 -0.00108656 -3.24653e-05 0.004 525.687 0.736799 
54 1 1 0.0149155 -0.0138958 0.0108308 0 0 0 -1.48064e-05 2.62705e-05 5.88687e-06 -6.36491e-06 1.07173e-05 1.51461e-05 -0.000840179 -0.000665234 -0.00101147 0.004 715.344 -4.7657 
84 1 1 0.023272 -0.0118009 0.0106601 0 0 0 -7.35872e-06 2.03267e-05 3.28858e-06 -1.52225e-05 7.78863e-06 1.92228e-05 -0.000258629 -0.00151445 -0.000346457 0.004 762.994 -3.77093 
180 1 1 0.0438204 -0.0140997 0.0110465 0 0 0 1.39915e-06 6.98426e-06 4.78555e-06 -7.86483e-06 7.35312e-06 4.07125e-06 0.000270081 0.000463055 -0.00127498 0.004 797.223 -0.75943 
103 1 1 0.0174441 -0.00636564 0.0105706 0 0 0 -6.78758e-06 2.35752e-05 -1.79398e-06 -1.51105e-05 8.86872e-06 1.74219e-05 -0.00183478 -0.000567537 -0.000701077 0.004 733.179 -4.57348 
156 1 1 0.0308892 -0.00946115 0.0106298 0 0 0 -4.00697e-06 1.95187e-05 5.96296e-06 -1.71701e-05 6.67579e-06 1.9882e-05 -0.000580453 9.51672e-05 9.91928e-05 0.004 781.682 -2.61183 
197 1 1 -0.0457831 -0.0047112 0.0107571 0 0 0 -7.46285e-06 -1.6939e-06 -3.91932e-07 -1.04428e-06 4.83937e-06 -1.93778e-07 7.37006e-05 0.000817441 0.000673269 0.004 302.307 0.632493 
87 1 1 -0.0386059 -0.00381155 0.0141381 0 0 0 -2.14205e-05 -1.04776e-05 -3.04662e-06 1.03797e-06 1.4377e-05 1.66013e-06 0.00385301 -0.000384536 -0.00191886 0.004 305.075 1.06629 
130 1 1 -0.0313597 -0.00387382 0.0107775 0 0 0 -3.39143e-05 -2.16928e-06 9.53259e-06 -7.79585e-06 -7.62577e-06 7.37413e-07 0.000181716 -0.00472517 0.0014507 0.004 314.758 2.10548 
604 1 1 -0.0224595 -0.000300837 0.0110795 0 0 0 -3.02494e-05 -1.7515e-06 -2.53044e-06 7.19368e-06 -9.66047e-06 1.08221e-05 -0.0030612 0.00099785 0.00363902 0.004 351.645 3.55346 
146 1 1 -0.0155078 -0.00400725 0.0103913 0 0 0 -2.28885e-05 1.15051e-05 -1.63302e-06 8.20739e-07 -1.27016e-05 1.43153e-05 -0.00228239 0.00126272 -0.000145643 0.004 397.001 3.67161 
57 1 1 -0.00517521 -0.00310605 0.0111953 0 0 0 -2.04434e-05 2.4705e-05 -1.381e-05 -4.40859e-06 -6.36359e-06 1.01581e-05 -0.00266789 0.000931287 0.000972849 0.004 500.893 1.57387 
493 1 1 0.0116957 -0.000875056 0.0103665 0 0 0 -5.50988e-06 2.49296e-05 -7.97343e-06 -1.56963e-05 5.43126e-06 1.61632e-05 -0.000705926 -0.000304728 -0.000644018 0.004 692.343 -4.40245 
31 1 1 0.0250484 -0.00405419 0.01046 0 0 0 -3.55557e-06 1.9558e-05 8.2736e-07 -1.6882e-05 7.23425e-06 1.72113e-05 -0.00055935 -0.000351657 -0.000345704 0.004 764.357 -3.59804 
588 1 1 0.0325999 -0.00174527 0.010543 0 0 0 -3.79545e-06 1.95461e-05 3.60167e-06 -1.379e-05 6.58548e-06 1.80206e-05 -0.000495265 -0.000971748 5.21586e-05 0.004 781.892 -2.4914 
63 1 1 0.045924 -0.00327881 0.0119252 0 0 0 -1.58137e-07 9.00645e-06 6.81186e-06 -5.59545e-06 7.8701e-06 7.14249e-06 -0.00128077 0.00177851 -0.00167716 0.004 797.167 -0.732681 
107 1 1 -0.00850634 -0.0452731 0.017677 0 0 0 -1.39223e-05 1.02189e-05 -1.49457e-06 6.9633e-06 3.73978e-06 1.63154e-05 -0.00210136 -0.000120413 0.0035344 0.004 463.93 3.0216 
222 1 1 -0.0014196 -0.0418101 0.0171129 0 0 0 -2.05231e-05 2.09617e-05 4.69428e-06 3.2937e-06 2.05835e-05 2.3192e-05 0.00278054 -0.000526078 -0.00122192 0.004 538.399 0.504371 
142 1 1 0.00615864 -0.0401388 0.0154211 0 0 0 -1.7401e-05 1.58948e-05 7.12065e-06 2.10095e-06 1.9248e-05 2.41413e-05 0.000576871 0.000353507 -0.000717731 0.004 610.507 -2.25 
172 1 1 0.0116014 -0.0446446 0.0189547 0 0 0 -1.55137e-05 1.11653e-05 5.30755e-06 2.59663e-07 7.68284e-06 1.2476e-05 0.00098618 -0.00239379 0.00273393 0.004 657.001 -3.92603 
109 1 1 0.0204197 -0.0412797 0.0183141 0 0 0 -8.07736e-06 9.28723e-06 4.65089e-06 5.5122e-06 7.24565e-06 7.98311e-06 0.000568003 0.00177196 0.000685797 0.004 732.102 -5.07756 
150 1 1 -0.0273271 -0.0370832 0.0158762 0 0 0 -6.04116e-06 5.37408e-06 2.56179e-06 6.49468e-06 -2.08685e-06 3.09447e-06 -0.000230961 -0.000597061 0.000664913 0.004 334.065 3.83653 
38 1 1 -0.0197788 -0.0373719 0.0182823 0 0 0 -1.15122e-05 1.29781e-05 6.96176e-06 1.01321e-05 -6.62376e-06 2.11269e-06 0.00168086 -0.000539515 0.00171325 0.004 364.044 4.57246 
199 1 1 -0.0118545 -0.0370266 0.0176499 0 0 0 -1.35443e-05 2.5954e-05 7.85836e-06 9.18009e-06 -2.91476e-06 1.40842e-05 -0.00133905 0.000279573 0.000843736 0.004 403.201 4.57563 
93 1 1 0.0137643 -0.037776 0.0156806 0 0 0 -1.98268e-05 1.65646e-05 9.3066e-06 5.73488e-08 1.08591e-05 1.75632e-05 -0.000366336 -0.00188226 0.000526239 0.004 682.803 -4.41888 
64 1 1 0.0280177 -0.0365092 0.0179285 0 0 0 -6.22526e-06 9.26417e-06 6.55244e-06 4.81205e-06 7.10779e-06 7.70073e-06 0.000224892 9.33812e-05 0.000696513 0.004 770.907 -3.77129 
22 1 1 -0.0327402 -0.032422 0.0194567 0 0 0 -9.0992e-06 5.66393e-06 5.45094e-06 1.45356e-07 -2.42187e-06 5.84115e-06 0.000337787 -0.00128009 0.00225998 0.004 318.973 2.79395 
174 1 1 -0.0224319 -0.0302105 0.0162617 0 0 0 -1.76923e-05 1.34703e-05 7.19415e-06 6.29163e-06 -1.05618e-05 9.47987e-06 -0.000518987 -0.00182822 0.00042082 0.004 350.15 4.30093 
32 1 1 -0.00428309 -0.0343968 0.0166774 0 0 0 -1.58925e-05 2.7515e-05 1.15867e-05 4.3111e-06 1.46151e-05 2.00612e-05 -0.00202885 1.62159e-05 0.000308229 0.004 501.613 1.89512 
128 1 1 0.00347462 -0.0331321 0.0179958 0 0 0 -2.15221e-05 2.95125e-05 8.89473e-06 3.36752e-06 2.19967e-05 2.72788e-05 -0.000795742 -0.000980702 -0.000803883 0.004 579.276 -1.10203 
88 1 1 0.0113687 -0.0304835 0.0177098 0 0 0 -2.66425e-05 2.66382e-05 8.62422e-06 1.88911e-06 1.61432e-05 2.25348e-05 0.000620955 -3.42943e-05 -0.00100293 0.004 678.051 -4.17901 
137 1 1 0.0208046 -0.0338186 0.0156333 0 0 0 -1.46995e-05 1.79709e-05 9.72445e-06 1.65489e-05 1.52957e-05 1.63297e-05 0.00127189 -0.00123051 0.000577569 0.004 746.279 -4.88356 
154 1 1 0.0339821 -0.0311387 0.0180551 0 0 0 -4.91563e-06 8.83767e-06 6.77429e-06 1.27626e-06 8.08527e-06 4.28772e-06 0.000468778 0.000344695 -0.000919715 0.004 785.935 -2.21718 
52 1 1 -0.031991 -0.0252343 0.0161625 0 0 0 -1.35954e-05 9.08624e-06 1.06748e-05 2.77903e-06 -4.3768e-06 1.2787e-05 -0.000814571 -0.00084426 0.000637028 0.004 318.276 2.53838 
80 1 1 -0.00960097 -0.0265066 0.0175803 0 0 0 -2.25538e-05 3.14696e-05 6.02043e-06 4.39543e-06 7.79209e-06 1.58412e-05 -0.00196348 -0.000463069 0.00295812 0.004 437.614 3.56822 
125 1 1 -0.00117359 -0.0267002 0.017374 0 0 0 -2.47419e-05 3.36184e-05 7.81537e-06 -5.06982e-06 1.04065e-05 2.46413e-05 -0.000625922 -0.0014258 0.00240074 0.004 533.747 0.782181 
72 1 1 0.0179273 -0.0264317 0.0156368 0 0 0 -2.65012e-05 2.62707e-05 1.27469e-05 4.87263e-06 1.74896e-05 2.3182e-05 -0.000173906 -0.00301033 0.000743276 0.004 726.787 -4.87419 
34 1 1 0.0269648 -0.0287252 0.0154181 0 0 0 -7.4305e-06 1.89037e-05 1.08447e-05 2.84965e-06 1.33008e-05 5.0687e-06 0.000129144 -0.000212666 -0.000580182 0.004 772.402 -3.14851 
218 1 1 -0.0395968 -0.0234663 0.0176916 0 0 0 -8.33551e-06 3.62467e-06 5.18714e-06 2.23193e-06 3.80241e-06 7.85196e-06 -0.00132394 -0.00112282 0.00143343 0.004 307.204 1.42295 
70 1 1 -0.0247175 -0.0230258 0.0185785 0 0 0 -2.10028e-05 1.45484e-05 8.97318e-06 3.43222e-08 -1.08895e-05 1.67809e-05 0.000197878 1.7106e-06 0.000536081 0.004 337.609 3.43816 
132 1 1 -0.0171323 -0.0242634 0.0164743 0 0 0 -2.26818e-05 1.62157e-05 7.02092e-06 4.81209e-06 -1.0019e-05 1.65163e-05 -0.00104639 -0.000449867 0.000499287 0.004 372.046 4.22296 
196 1 1 0.00716657 -0.0237891 0.01706 0 0 0 -2.77258e-05 3.83735e-05 8.714e-06 -9.6319e-07 1.76694e-05 2.33045e-05 -0.00277332 -0.000970709 -0.000459197 0.004 646.468 -3.14788 
362 1 1 0.0243874 -0.0214293 0.0170615 0 0 0 -1.38879e-05 2.52374e-05 9.58001e-06 -6.2794e-06 1.3908e-05 2.20823e-05 -0.000946409 -0.00034596 0.0012406 0.004 771.733 -3.26476 
49 1 1 0.0387628 -0.0248027 0.0179814 0 0 0 -3.38449e-06 7.78084e-06 6.02186e-06 -4.03234e-07 7.32047e-06 5.0534e-06 -0.000203611 -4.21218e-05 -8.17711e-06 0.004 792.62 -1.5031 
173 1 1 -0.0431191 -0.0163148 0.0177078 0 0 0 -7.14731e-06 -2.43076e-06 1.23999e-06 9.75584e-07 8.02733e-06 7.52422e-06 0.000294452 -0.000388188 -0.000692323 0.004 305.426 1.11579 
50 1 1 -0.0295064 -0.0167659 0.0182811 0 0 0 -1.90688e-05 8.91899e-06 9.5077e-06 2.49571e-06 -6.19732e-07 1.88896e-05 -0.00240784 0.00116298 4.48057e-05 0.004 321.465 2.50417 
202 1 1 -0.0134618 -0.0172167 0.0161106 0 0 0 -2.06279e-05 1.58975e-05 2.46488e-06 8.06983e-06 -1.30478e-05 1.71715e-05 -0.000356932 0.000157777 -0.00125734 0.004 406.012 3.85943 
86 1 1 -0.00524863 -0.0199158 0.0183756 0 0 0 -2.57784e-05 3.80547e-05 9.51838e-06 6.51914e-07 8.36652e-06 1.80832e-05 0.00208748 -0.000688026 -0.00250469 0.004 495.078 2.05919 
129 1 1 0.0138598 -0.0196296 0.0162859 0 0 0 -2.53289e-05 3.10417e-05 7.91444e-06 -4.85647e-06 1.77732e-05 2.5051e-05 -0.000392375 -0.000987486 -0.000792269 0.004 703.888 -4.2948 
82 1 1 0.0291402 -0.0151359 0.0159323 0 0 0 -9.10996e-06 2.36488e-05 8.21191e-06 -1.13846e-05 1.3053e-05 2.21248e-05 -0.00033308 -0.000844801 -0.0012745 0.004 782.034 -2.56593 
1 1 1 0.0424683 -0.0178049 0.0178802 0 0 0 -3.05634e-06 7.58858e-06 5.01402e-06 -1.85486e-06 7.16403e-06 4.91541e-06 -0.000305358 -0.000546609 -0.000577455 0.004 795.606 -1.03326 
168 1 1 -0.0224798 -0.0136303 0.0164169 0 0 0 -2.13545e-05 7.44139e-06 -5.55605e-06 9.15042e-06 -1.62315e-05 1.13722e-05 -0.0026588 -0.000752793 0.000702186 0.004 347.43 3.69471 
121 1 1 -0.00514894 -0.0120185 0.0174567 0 0 0 -2.88782e-05 3.68582e-05 -1.1435e-06 2.76612e-06 9.49172e-07 1.63475e-05 -0.00393099 -0.000990571 0.00346276 0.004 505.299 1.50194 
28 1 1 0.00814316 -0.0139814 0.0183175 0 0 0 -2.93674e-05 5.08248e-05 8.08261e-07 -4.95943e-06 1.5298e-05 2.23175e-05 -0.00386664 -0.00122719 0.000953838 0.004 658.28 -3.83099 
42 1 1 0.0200409 -0.0148105 0.0172658 0 0 0 -2.02581e-05 2.87263e-05 4.4363e-06 -1.1035e-05 1.44311e-05 3.22521e-05 -0.00144158 -0.000308877 -0.000718143 0.004 748.675 -3.99584 
60 1 1 0.0376281 -0.0116471 0.0161719 0 0 0 -7.54212e-06 1.60305e-05 1.23328e-05 -1.99804e-05 1.54427e-05 2.09986e-05 -0.00113178 -0.000668765 -0.000995682 0.004 794.459 -1.18409 
135 1 1 -0.0452123 -0.00865101 0.0176759 0 0 0 -3.75709e-06 -1.97595e-06 6.13179e-07 1.48088e-06 6.11698e-06 3.55187e-06 0.000307686 0.000125962 0.000122333 0.004 302.931 0.741293 