ITEM: TIMESTEP
37600
ITEM: NUMBER OF ATOMS
890
ITEM: BOX BOUNDS mm mm mm
-0.05 0.05
-0.05 0.05
0 0.15
ITEM: ATOMS id type type x y z ix iy iz vx vy vz fx fy fz omegax omegay omegaz radius f_Temp[0] f_heatFlux[0] 
59 1 1 -0.000715549 -0.0460982 0.00395598 0 0 0 2.62003e-07 5.20594e-07 6.52942e-07 -3.2583e-07 -1.82422e-10 4.65757e-08 9.66979e-05 0.000107594 -0.000136087 0.004 537.836 0.409362 
170 1 1 -0.0173498 -0.0426414 0.00397301 0 0 0 1.65185e-07 6.27996e-07 5.35056e-07 -3.83551e-07 -6.69835e-08 1.22966e-07 2.45784e-05 -4.00855e-05 4.73684e-05 0.004 411.525 3.72011 
15 1 1 -0.00975016 -0.0449638 0.00393397 0 0 0 2.69103e-07 8.54544e-07 3.86084e-07 -6.43949e-07 -5.29019e-08 5.91696e-07 -0.000190191 5.44144e-05 3.59393e-05 0.004 446.937 3.17992 
116 1 1 0.00648761 -0.0428197 0.00395869 0 0 0 1.38969e-07 6.6543e-07 6.61183e-07 7.08301e-09 -3.29103e-07 -2.41425e-07 -3.24271e-05 -2.39669e-05 0.000139838 0.004 610.19 -1.64657 
158 1 1 0.0143627 -0.0437625 0.00389981 0 0 0 -6.68142e-09 4.40888e-07 3.82927e-07 3.01887e-08 -2.65584e-07 -2.55507e-07 6.46393e-07 7.02325e-06 -7.50966e-05 0.004 659.327 -2.80732 
98 1 1 0.0216779 -0.0406527 0.00394261 0 0 0 1.32002e-07 1.07445e-07 7.51974e-08 6.05235e-08 -9.13143e-08 -1.45809e-07 -6.59491e-06 9.24056e-05 -5.62423e-05 0.004 701.686 -3.40109 
169 1 1 -0.0244315 -0.0390659 0.00391427 0 0 0 3.50812e-07 8.93421e-07 6.4138e-07 1.04897e-08 3.7536e-07 6.34101e-07 -1.52872e-05 2.54561e-05 -8.80133e-06 0.004 371.905 3.67436 
89 1 1 -0.011812 -0.0369235 0.00395462 0 0 0 2.03667e-07 1.29691e-06 9.79561e-07 -5.4606e-07 -6.05058e-07 5.1146e-07 -0.000257491 -1.64057e-05 -7.73911e-05 0.004 437.996 2.85892 
152 1 1 -0.00418342 -0.0390223 0.00390524 0 0 0 1.52268e-07 1.37964e-06 1.51844e-06 -1.02566e-06 -7.37606e-07 2.91329e-07 -0.000140851 3.81582e-05 0.000114582 0.004 502.872 1.31482 
23 1 1 0.0153483 -0.035882 0.00391129 0 0 0 5.92665e-08 6.71103e-07 9.21339e-07 1.67945e-07 -3.14942e-07 -3.70341e-07 -3.21249e-05 7.20495e-05 -7.4807e-08 0.004 670.887 -2.98087 
118 1 1 -0.0307533 -0.0342397 0.00392725 0 0 0 1.28767e-07 6.31609e-07 3.00399e-07 4.26406e-07 2.88285e-07 4.47121e-07 -9.43883e-05 6.38243e-06 4.2642e-05 0.004 342.538 3.31893 
30 1 1 -0.0188787 -0.0333717 0.00395275 0 0 0 4.58167e-07 1.96554e-06 1.28339e-06 3.57026e-07 2.66969e-07 7.24162e-07 -0.000130271 9.92513e-05 5.88133e-06 0.004 385.792 3.46052 
215 1 1 -0.00603631 -0.0313238 0.00390661 0 0 0 2.26634e-07 1.81132e-06 1.60889e-06 -7.72195e-07 -7.20961e-07 2.40214e-07 -0.000243957 0.000111096 -0.000215309 0.004 480.232 1.84323 
74 1 1 0.0018414 -0.0338192 0.0039068 0 0 0 -2.29903e-08 1.66898e-06 1.3611e-06 -5.13339e-07 -9.36989e-07 -2.54824e-08 -0.000213256 -1.81409e-05 -0.000106835 0.004 557.507 -0.151446 
24 1 1 0.00917856 -0.0308342 0.00392035 0 0 0 8.18664e-08 9.71154e-07 1.25121e-06 -1.52161e-07 -8.91899e-07 -3.90939e-07 -0.000112369 6.3519e-05 -6.63065e-05 0.004 632.476 -2.08564 
198 1 1 0.0259423 -0.0339524 0.00395551 0 0 0 -1.26708e-07 -7.51966e-09 1.55782e-07 7.23779e-08 6.6598e-08 -8.41641e-08 5.70549e-05 -1.82584e-05 0.000104469 0.004 734.561 -3.42881 
161 1 1 0.0335301 -0.0316074 0.00391358 0 0 0 -2.51662e-08 8.4744e-08 7.98986e-08 7.96515e-08 -5.94667e-08 -2.43241e-07 9.42549e-07 1.57285e-05 -3.513e-05 0.004 758.644 -3.03747 
8 1 1 -0.0322699 -0.0264156 0.00398405 0 0 0 -4.41784e-08 8.91309e-07 5.92142e-07 4.07019e-07 1.82205e-07 7.21576e-07 2.11526e-05 -0.000102681 6.2709e-05 0.004 335.16 2.93972 
12 1 1 -0.0244143 -0.0276959 0.00386439 0 0 0 2.49748e-07 1.83814e-06 1.43479e-06 7.60305e-07 5.21496e-07 1.19933e-06 -0.000196857 4.70663e-05 0.000181795 0.004 360.091 3.36102 
188 1 1 -0.0131742 -0.0277762 0.00396588 0 0 0 4.576e-07 2.16665e-06 1.41571e-06 1.76058e-07 1.00754e-06 7.03716e-07 -0.000243761 0.000114544 2.82692e-05 0.004 406.111 3.34207 
77 1 1 -0.000100239 -0.0260809 0.00389417 0 0 0 4.64151e-07 1.75753e-06 1.58491e-06 -8.34072e-07 -1.0852e-06 6.44749e-08 -0.000162301 -3.53109e-05 0.000100756 0.004 542.021 0.224447 
113 1 1 0.0165643 -0.0280203 0.0038866 0 0 0 -1.41217e-07 5.99685e-07 7.96466e-07 -8.48194e-08 -1.65152e-07 -3.83498e-07 -4.48118e-05 3.74187e-05 3.97493e-05 0.004 688.181 -3.02413 
183 1 1 0.0384541 -0.0253742 0.00393848 0 0 0 -1.48433e-07 5.1977e-08 1.5453e-07 1.97788e-07 -8.76882e-08 -2.94486e-07 2.15932e-05 2.19705e-05 3.09853e-05 0.004 774.718 -2.44234 
162 1 1 -0.0396311 -0.023418 0.00390783 0 0 0 4.83253e-08 6.61906e-07 3.975e-07 -4.74765e-08 -4.215e-07 1.25266e-07 -0.000131251 1.73148e-05 6.80106e-05 0.004 319.891 2.17725 
53 1 1 -0.027206 -0.0202486 0.00395168 0 0 0 7.93659e-09 1.50576e-06 7.12396e-07 -9.8003e-08 6.70139e-07 7.74773e-07 -0.000212283 4.73098e-05 -0.000185748 0.004 344.677 3.08347 
148 1 1 -0.0187584 -0.0220642 0.00393817 0 0 0 6.29282e-07 2.59824e-06 1.13339e-06 1.5111e-07 1.35091e-06 9.1294e-07 -0.000429115 7.66445e-05 -0.000168144 0.004 382.917 3.54506 
195 1 1 -0.00727817 -0.02155 0.00394566 0 0 0 5.40048e-07 1.57134e-06 1.85467e-06 -4.52646e-07 -3.29347e-07 -4.16858e-08 -0.000323456 -2.83376e-05 0.000232048 0.004 464.606 2.3919 
179 1 1 0.00736629 -0.0231031 0.00394274 0 0 0 -3.53137e-09 1.03306e-06 1.48428e-06 -7.86104e-07 -1.05308e-06 -6.9038e-07 -8.12073e-05 -9.35171e-05 4.91624e-05 0.004 631.485 -2.13701 
95 1 1 0.0148506 -0.02031 0.00393212 0 0 0 -1.8524e-07 5.47712e-07 1.68025e-06 1.26741e-08 -4.33233e-07 -6.29473e-07 -8.71952e-05 -4.93648e-05 -0.000126424 0.004 684.14 -2.96994 
76 1 1 0.0230028 -0.0233057 0.00397474 0 0 0 -3.78911e-07 1.21845e-07 5.5247e-07 -1.89701e-07 -4.32699e-08 -9.41399e-08 3.86216e-05 -0.000109964 -5.62648e-05 0.004 739.936 -3.31789 
100 1 1 0.0325586 -0.0200895 0.00388596 0 0 0 -6.56578e-07 1.95212e-08 5.85975e-07 2.96845e-07 -3.21873e-07 -7.90928e-07 6.17262e-05 -0.000114984 3.06237e-05 0.004 767.166 -2.68834 
65 1 1 -0.0430742 -0.0162802 0.00393145 0 0 0 -1.03716e-09 5.11203e-07 2.58794e-07 -4.55797e-08 -8.91733e-07 1.58307e-07 -4.65739e-05 4.57871e-06 2.72055e-05 0.004 313.493 1.71366 
102 1 1 -0.0351583 -0.0155178 0.00394449 0 0 0 -2.51289e-07 1.52443e-06 9.28998e-07 -4.60245e-07 -1.35009e-07 7.58934e-07 -0.000407144 -0.000138665 0.00018361 0.004 322.89 2.20707 
213 1 1 -0.0132588 -0.0162738 0.00397365 0 0 0 8.90849e-07 1.49062e-06 6.91757e-07 7.58823e-07 9.81051e-07 2.55175e-07 -0.000118261 0.000169716 -0.000113392 0.004 409.671 3.39183 
10 1 1 0.00114846 -0.0182524 0.00475004 0 0 0 -4.94136e-08 1.41982e-06 2.30561e-06 -1.36925e-06 -1.08102e-06 -4.78252e-07 -4.22862e-05 0.000303794 1.13474e-06 0.004 566.044 -0.506738 
5 1 1 0.0087979 -0.0152553 0.00390316 0 0 0 1.38181e-08 6.491e-07 1.7833e-06 -6.10862e-07 -1.17662e-06 -8.6741e-07 -0.000149937 0.000105461 2.74632e-05 0.004 641.302 -2.29207 
96 1 1 0.0211693 -0.0155242 0.00395653 0 0 0 -2.34018e-07 -9.1239e-09 1.30015e-06 7.73408e-07 -2.26525e-07 -6.58675e-07 7.96827e-05 -1.50335e-05 5.44535e-05 0.004 733.688 -3.18802 
167 1 1 0.0421923 -0.0183683 0.00392112 0 0 0 -1.20071e-07 -1.25068e-09 1.17839e-07 3.84977e-07 -1.10663e-07 -2.04122e-07 4.16812e-06 -2.90277e-05 -3.86882e-05 0.004 786.42 -1.75423 
124 1 1 -0.029011 -0.0104716 0.00394791 0 0 0 -1.17406e-07 1.15686e-06 1.29515e-07 -1.55214e-06 1.23015e-06 2.18875e-06 -0.000145396 -1.10538e-05 -0.000107943 0.004 339.815 2.74558 
220 1 1 -0.0217759 -0.0144543 0.00398045 0 0 0 5.21797e-07 6.58396e-07 5.63794e-07 -5.98285e-07 7.08166e-07 6.45008e-07 5.08071e-05 -8.36677e-05 -7.30321e-05 0.004 365.018 3.17794 
144 1 1 -0.00535517 -0.0138038 0.00388181 0 0 0 -7.27157e-08 1.56885e-06 2.49507e-06 -4.11093e-07 -2.60512e-07 -6.18301e-07 -0.00017845 -1.84109e-06 -0.000122931 0.004 503.752 1.05527 
26 1 1 0.00255573 -0.0104629 0.0039057 0 0 0 6.455e-08 8.18424e-07 1.94603e-06 -4.773e-07 -8.73573e-07 -1.99928e-07 -5.70028e-05 9.6622e-05 -6.01211e-05 0.004 570.901 -0.666763 
194 1 1 0.0287352 -0.013103 0.00393082 0 0 0 -4.78519e-07 -8.21812e-09 9.73212e-07 8.26176e-07 -4.23582e-07 -1.01173e-06 1.78066e-05 -2.78627e-05 -5.80429e-05 0.004 761.381 -2.81867 
37 1 1 0.0366701 -0.0122308 0.00393306 0 0 0 -7.35414e-07 -4.21698e-07 8.39101e-07 5.69639e-07 -1.75304e-07 -8.84699e-07 7.96964e-05 -0.000155409 -0.000127401 0.004 781.613 -2.02721 
219 1 1 0.0447285 -0.0108715 0.00390888 0 0 0 8.61427e-08 -8.87948e-08 1.29016e-07 3.34002e-07 1.79452e-08 -7.39771e-08 -1.82849e-05 3.35854e-05 -9.79511e-06 0.004 791.275 -1.36883 
636 1 1 -0.0451997 -0.00864275 0.00391771 0 0 0 -3.39936e-07 3.79834e-07 1.65137e-07 5.35706e-07 -6.29077e-07 2.94509e-07 -4.17183e-05 -6.34469e-05 9.66676e-05 0.004 308.553 1.30446 
39 1 1 -0.0161466 -0.00885108 0.00388991 0 0 0 2.059e-07 1.25682e-06 1.28496e-06 2.13449e-08 5.4146e-07 8.20218e-07 -0.000220669 -3.27826e-05 0.000240906 0.004 404.433 2.80472 
171 1 1 -0.00395984 -0.00597828 0.00392048 0 0 0 1.29076e-07 1.16631e-06 1.73098e-06 -1.14447e-07 -9.21222e-08 -6.81201e-08 -0.000213755 7.14324e-05 -3.99656e-06 0.004 509.009 0.849852 
200 1 1 0.0146298 -0.0098652 0.00396379 0 0 0 -3.43868e-08 9.43898e-08 1.38755e-06 6.48102e-07 -8.5338e-07 -8.46945e-07 -5.2098e-05 -8.50342e-05 -7.09595e-05 0.004 690.523 -3.12922 
21 1 1 0.022252 -0.00762162 0.00394338 0 0 0 -1.64572e-07 -1.99699e-07 1.55971e-06 9.58287e-07 -4.83608e-07 -9.14929e-07 3.16415e-05 -5.34886e-05 -2.5834e-05 0.004 736.448 -3.21901 
17 1 1 0.0298456 -0.00520717 0.00394877 0 0 0 -1.40904e-07 -1.6348e-07 1.17489e-06 1.12632e-06 4.38625e-08 -1.50215e-06 2.67142e-05 -1.98261e-05 5.52257e-06 0.004 761.274 -2.87877 
477 1 1 -0.0445832 -0.000710813 0.00396286 0 0 0 -4.95428e-07 2.00437e-07 1.22176e-07 1.23141e-06 -9.4098e-07 8.04444e-07 -1.56153e-05 -9.65082e-05 -8.79785e-05 0.004 308.118 1.22406 
140 1 1 -0.0352672 -0.00371827 0.00387249 0 0 0 -5.39126e-07 6.97522e-07 4.28304e-07 2.11691e-06 -1.86343e-06 2.64626e-06 -3.62016e-05 -0.000111688 -0.000141606 0.004 324.363 2.06527 
119 1 1 -0.0273891 -0.00269833 0.00396392 0 0 0 -4.82682e-07 7.04944e-07 4.5587e-07 6.81923e-07 3.29493e-07 1.75494e-06 -3.59478e-05 3.03763e-06 0.000103018 0.004 347.263 2.67024 
207 1 1 -0.0194911 -0.00168728 0.00389514 0 0 0 -6.15732e-07 8.09838e-07 7.9427e-07 -2.72255e-07 6.60316e-07 2.0246e-06 -0.000109019 -0.000116495 -6.33281e-05 0.004 384.206 2.82682 
69 1 1 -0.0111573 -0.00264551 0.0039301 0 0 0 -3.74975e-07 9.13868e-07 8.86749e-07 1.61369e-07 6.69079e-07 5.9775e-07 -0.00013915 -0.000126644 -8.22161e-05 0.004 443.105 2.22104 
221 1 1 0.00874803 -0.00448988 0.00393203 0 0 0 4.04618e-07 1.32778e-08 1.34924e-06 9.44168e-07 -1.5297e-06 -4.05993e-07 0.000165953 5.1433e-05 -3.55122e-05 0.004 651.382 -2.56623 
457 1 1 0.0163505 -0.0020806 0.0039593 0 0 0 3.08686e-07 -2.03701e-07 1.14181e-06 1.11879e-06 -6.2136e-07 -6.08523e-07 -9.1797e-05 1.9546e-05 -4.90382e-05 0.004 702.495 -3.27721 
155 1 1 0.0378912 -0.00224685 0.00393694 0 0 0 -7.1221e-07 -5.74766e-07 9.97411e-07 7.32578e-07 3.67679e-08 -9.132e-07 6.91432e-05 -0.000209055 -0.000274021 0.004 783.138 -1.83026 
665 1 1 0.0459183 -0.00307627 0.00394261 0 0 0 -2.04445e-08 -2.59446e-07 2.22484e-07 4.86863e-07 2.82462e-07 -2.61249e-07 7.91284e-05 2.72439e-06 3.94918e-05 0.004 791.225 -1.33794 
120 1 1 0.00918486 -0.0371091 0.00876937 0 0 0 -5.70898e-08 1.6318e-06 1.73008e-06 2.40732e-07 -1.09365e-06 -8.83794e-07 -5.71238e-05 -1.21641e-05 -0.000108854 0.004 634.487 -2.23135 
9 1 1 -0.0247147 -0.033359 0.00937624 0 0 0 5.5221e-07 2.44121e-06 1.39074e-06 1.29803e-06 2.31528e-07 1.8302e-06 -9.04186e-05 -0.00013673 0.000108717 0.004 362.681 3.50811 
101 1 1 -0.0188615 -0.0277191 0.0095515 0 0 0 4.89423e-07 4.16186e-06 2.34294e-06 7.11963e-07 8.50515e-09 1.46628e-06 -0.00018767 -1.70302e-05 -0.000105861 0.004 381.138 3.44022 
48 1 1 0.0221998 -0.0293138 0.00920033 0 0 0 -1.1155e-07 4.16569e-07 5.86144e-07 1.22162e-07 3.10251e-07 -3.11712e-07 -0.000101463 4.49803e-05 -0.000235871 0.004 723.44 -3.21748 
75 1 1 0.02936 -0.0261745 0.00787424 0 0 0 -2.26065e-07 -8.98655e-08 3.49142e-07 3.10157e-07 1.21745e-07 -5.65159e-07 3.8742e-05 3.76007e-05 0.000136383 0.004 755.26 -3.00231 
46 1 1 -0.0327912 -0.0205809 0.00958352 0 0 0 3.72052e-07 3.22829e-06 2.3025e-06 9.01648e-07 -1.12145e-06 1.47799e-06 0.000129325 0.000298928 -0.000126702 0.004 333.099 2.64021 
33 1 1 -0.013034 -0.0220249 0.00949571 0 0 0 7.98719e-07 3.63593e-06 2.1286e-06 -2.00375e-07 1.05726e-06 9.01146e-07 -0.000234081 -9.43907e-05 -0.00011569 0.004 411.768 3.18345 
11 1 1 0.02689 -0.0187448 0.00924465 0 0 0 -6.31229e-07 -1.9576e-07 1.55693e-06 1.12231e-06 2.23538e-07 -1.24554e-06 0.00013954 0.000179128 1.13775e-06 0.004 750.783 -3.0128 
71 1 1 -0.0372751 -0.00954695 0.00876624 0 0 0 -1.04278e-06 1.93379e-06 5.57926e-07 7.55085e-07 -3.43496e-06 1.23148e-06 -8.2099e-05 0.000100544 2.4883e-06 0.004 317.782 1.86803 
62 1 1 -0.0228082 -0.00771372 0.0081404 0 0 0 -3.04642e-07 1.47116e-06 8.23325e-07 1.03492e-07 1.21638e-07 2.16371e-06 -4.15396e-06 -0.00017309 0.000161861 0.004 365.313 2.985 
19 1 1 -0.00970673 -0.00905633 0.00849073 0 0 0 1.77801e-07 2.81835e-06 3.22656e-06 -7.19049e-08 -4.99432e-08 -3.61876e-07 -0.000143391 -8.69963e-06 -1.78699e-05 0.004 469.447 1.65234 
187 1 1 0.00796706 -0.00988205 0.00975755 0 0 0 2.15393e-06 1.37809e-06 1.67351e-06 6.85595e-06 -3.6097e-06 -2.00076e-06 -0.00042332 0.000567376 -0.000266305 0.004 636.953 -2.63961 
157 1 1 0.0395817 -0.00751949 0.00963115 0 0 0 -5.19081e-07 -8.46964e-07 1.35813e-06 1.45586e-06 1.49234e-07 -1.59327e-06 5.72136e-05 0.000345871 0.000215844 0.004 787.377 -1.6306 
18 1 1 0.0022911 -0.00404902 0.00852647 0 0 0 1.00944e-06 1.05699e-06 2.58929e-06 6.18261e-07 -1.14786e-06 -5.97832e-07 -8.46756e-05 0.000192048 -0.000142907 0.004 568.987 -0.577203 
185 1 1 -0.00531148 -0.045735 0.0104438 0 0 0 3.2124e-07 1.22244e-06 9.90739e-07 -6.39546e-07 -1.95961e-07 7.39329e-07 0.000120412 -3.10445e-05 -0.000133182 0.004 495.735 1.65012 
83 1 1 0.00256736 -0.0459473 0.0112661 0 0 0 -5.11526e-09 1.25195e-06 9.83756e-07 -2.7819e-07 -4.48523e-07 -2.98127e-07 0.000249056 8.35831e-05 0.00011021 0.004 564.677 -0.372194 
58 1 1 -0.0218568 -0.0405821 0.0112769 0 0 0 6.76055e-07 1.76569e-06 5.99804e-07 -6.2968e-08 3.99227e-07 1.95193e-06 -9.92684e-05 -2.76607e-05 5.94205e-05 0.004 376.887 3.64937 
105 1 1 -0.013586 -0.043966 0.0108788 0 0 0 3.17206e-07 7.52842e-07 9.5163e-07 -2.4214e-06 -2.70329e-08 7.11045e-07 0.000227457 -4.49519e-05 0.000154427 0.004 424.309 3.99367 
223 1 1 0.0103957 -0.0448674 0.0106706 0 0 0 -1.4958e-07 1.11129e-06 6.08115e-07 -4.15914e-08 -5.88222e-07 -3.79795e-07 -4.55627e-06 -4.10974e-06 -9.39566e-05 0.004 627.256 -2.07076 
217 1 1 0.0179432 -0.0424253 0.0108281 0 0 0 9.7963e-08 6.44585e-07 1.60502e-07 1.79026e-07 -2.54026e-07 -5.74796e-07 -0.000112887 0.000106116 -8.25023e-05 0.004 677.356 -3.11037 
6 1 1 -0.0162615 -0.0350311 0.0113114 0 0 0 1.9346e-07 3.76463e-06 2.0424e-06 -5.33371e-07 1.14678e-07 2.64207e-06 0.000183507 -0.000337001 0.000361896 0.004 403.728 3.33802 
151 1 1 -0.00801308 -0.0382603 0.0108115 0 0 0 3.59869e-08 2.84098e-06 2.38196e-06 -1.72248e-06 -7.23956e-07 1.55324e-06 -6.36775e-05 -7.03535e-05 0.000100396 0.004 464.669 2.38835 
2 1 1 0.00044392 -0.038308 0.010271 0 0 0 -2.26998e-07 3.13305e-06 2.21748e-06 -6.98486e-07 -1.39891e-06 -1.76027e-07 -0.000207188 -7.72892e-05 -5.92141e-05 0.004 549.097 0.0603545 
117 1 1 0.0249196 -0.0387267 0.0109177 0 0 0 2.26301e-08 2.76253e-07 -1.69309e-07 1.78618e-07 1.32262e-07 -4.53014e-07 -4.42029e-05 -0.000117778 8.4946e-06 0.004 721.306 -3.43997 
13 1 1 -0.0323455 -0.0327547 0.011537 0 0 0 3.88631e-07 1.61754e-06 5.73896e-07 6.17983e-07 2.72147e-07 1.09291e-06 -6.36922e-05 3.11056e-05 -2.734e-05 0.004 341.273 3.14014 
193 1 1 -0.00982579 -0.0305006 0.0107685 0 0 0 3.04563e-07 4.45735e-06 3.75749e-06 -7.00092e-07 -8.14749e-07 7.48523e-07 5.15557e-05 -5.27716e-05 -0.000258388 0.004 454.813 2.40824 
47 1 1 -0.00133758 -0.0305434 0.0103848 0 0 0 8.88236e-07 3.52883e-06 2.9534e-06 -9.98792e-07 -1.81532e-06 -7.42771e-08 5.24834e-05 0.000276308 -0.000172917 0.004 537.025 0.370973 
153 1 1 0.00656462 -0.0300231 0.0113662 0 0 0 5.30614e-07 2.34629e-06 3.03231e-06 -5.20297e-07 -1.64745e-06 -1.09587e-06 -5.61921e-05 9.02155e-05 -7.17687e-05 0.004 609.52 -1.58146 
41 1 1 0.0148076 -0.0317915 0.010654 0 0 0 2.51381e-07 1.64526e-06 2.05535e-06 2.0627e-07 -6.63498e-07 -9.60579e-07 -3.13575e-05 0.000113242 -1.68054e-05 0.004 676.427 -2.99383 
163 1 1 0.0311565 -0.0339183 0.0111114 0 0 0 -1.2915e-07 2.4831e-07 1.10945e-07 3.02774e-07 9.88415e-08 -6.0667e-07 -4.86378e-05 -2.2012e-05 -4.47837e-05 0.004 753.913 -3.08458 
214 1 1 -0.0375015 -0.0268265 0.010714 0 0 0 2.69697e-07 1.66848e-06 1.03907e-06 1.11704e-07 -3.65342e-07 4.25115e-07 0.000128516 -0.000188402 0.000272318 0.004 327.448 2.51614 
210 1 1 0.0364694 -0.0280971 0.0111135 0 0 0 -1.63802e-07 -1.07251e-08 1.35956e-07 5.67829e-07 3.89469e-08 -6.2387e-07 3.17188e-05 -2.2305e-06 1.40594e-05 0.004 773.58 -2.44859 
108 1 1 -0.0260915 -0.0246404 0.0109305 0 0 0 3.38836e-07 4.9852e-06 2.16754e-06 6.48204e-07 3.01638e-07 1.34626e-06 -0.000626582 2.19771e-05 0.000182032 0.004 353.019 3.09295 
40 1 1 -0.00551112 -0.0238697 0.0113285 0 0 0 7.45069e-07 4.00342e-06 3.95233e-06 -7.76472e-07 -1.38697e-06 -1.25091e-07 -0.000205489 3.77023e-05 5.83126e-05 0.004 491.416 1.46895 
55 1 1 0.00236208 -0.0232851 0.0108249 0 0 0 1.96174e-07 2.80772e-06 4.01573e-06 -4.68171e-07 -1.90828e-06 -1.07188e-06 9.38683e-05 -0.000250149 -7.99801e-05 0.004 576.323 -0.69278 
91 1 1 0.0120918 -0.0243837 0.0101856 0 0 0 7.24952e-08 1.81449e-06 3.31451e-06 -4.50815e-07 -1.31559e-06 -1.315e-06 0.000168972 5.92831e-05 6.89026e-05 0.004 659.596 -2.70074 
112 1 1 0.0192794 -0.0205361 0.0105073 0 0 0 -4.38907e-07 9.73428e-07 3.80332e-06 6.27109e-07 -5.39637e-07 -1.36157e-06 -0.00036265 0.000234553 -0.000180919 0.004 708.126 -3.27933 
178 1 1 0.0318658 -0.0225254 0.0144789 0 0 0 -1.01983e-06 -1.09782e-07 8.61569e-07 1.76873e-06 5.02311e-07 -1.59506e-06 6.48941e-05 -0.000152386 -2.42993e-05 0.004 768.572 -2.62638 
131 1 1 0.0407765 -0.0214683 0.0110513 0 0 0 -3.17007e-07 -7.9259e-08 1.69189e-07 6.68913e-07 -1.63551e-07 -6.35168e-07 8.46971e-06 1.60419e-05 4.06723e-05 0.004 783.029 -1.95327 
160 1 1 -0.0414721 -0.0199398 0.0108131 0 0 0 3.9785e-08 1.23886e-06 7.30856e-07 -6.36322e-08 -9.13342e-07 3.38251e-07 -6.72825e-05 1.11984e-05 -2.72016e-05 0.004 315.642 1.86456 
43 1 1 -0.0361086 -0.0151005 0.0142598 0 0 0 -4.99395e-07 4.29178e-06 2.65489e-06 1.43623e-06 -2.67261e-06 1.5459e-06 -0.000586121 -0.000352032 0.000501195 0.004 322.946 2.09719 
4 1 1 -0.0270342 -0.0151184 0.010074 0 0 0 3.22862e-07 3.92392e-06 1.2671e-06 -2.21377e-06 6.40196e-07 4.39649e-06 -0.000403155 -0.000104592 0.000370285 0.004 347.871 2.96067 
104 1 1 -0.020301 -0.0192302 0.0111977 0 0 0 7.04e-07 5.32251e-06 2.45093e-06 -1.40519e-07 1.56831e-06 1.76087e-06 0.00016509 -0.000233327 -0.000163655 0.004 376.462 3.20325 
20 1 1 -0.0074548 -0.0162218 0.0110955 0 0 0 4.34628e-07 3.76613e-06 4.5169e-06 -7.52307e-07 -1.29986e-06 -1.65356e-06 -7.59665e-05 0.000213728 -0.000124138 0.004 484.284 1.47368 
45 1 1 0.000825052 -0.0164513 0.0146047 0 0 0 1.03041e-06 3.45881e-06 5.75269e-06 5.71254e-07 -2.56894e-06 -2.14198e-06 -2.51763e-06 0.000301695 -0.000164363 0.004 558.027 -0.267502 
159 1 1 0.00795159 -0.0177076 0.0113471 0 0 0 3.69721e-07 2.17436e-06 4.77997e-06 1.28527e-07 -1.98815e-06 -2.36314e-06 -0.000105451 -3.8568e-06 -0.00015639 0.004 634.535 -2.12851 
136 1 1 0.0347931 -0.0163371 0.0104656 0 0 0 -8.77037e-07 -2.89692e-07 1.12956e-06 1.80173e-06 4.0544e-08 -1.56129e-06 3.47076e-05 0.000210661 7.20383e-06 0.004 775.311 -2.31517 
177 1 1 -0.0443274 -0.0125289 0.0108104 0 0 0 -5.59944e-07 9.79907e-07 4.17551e-07 4.43505e-07 -8.65828e-07 5.16463e-07 -3.77759e-05 -0.000143129 0.000227507 0.004 311.547 1.52668 
139 1 1 -0.016821 -0.0121092 0.0110438 0 0 0 5.12263e-07 4.79712e-06 3.39258e-06 -3.07575e-07 1.35589e-06 2.67903e-06 -0.000520688 -0.000263019 0.000289993 0.004 396.7 2.88525 
211 1 1 -0.0020954 -0.0104148 0.0103075 0 0 0 7.85769e-07 2.45579e-06 4.01339e-06 -3.20293e-07 -1.39407e-06 -1.20173e-06 -0.000240949 5.00313e-05 -0.000136421 0.004 529.165 0.388486 
54 1 1 0.0149155 -0.0138957 0.0108309 0 0 0 2.11579e-07 1.08215e-06 3.54117e-06 3.57437e-07 -1.41607e-06 -2.17778e-06 -0.000233926 0.00021594 -3.13274e-05 0.004 689.887 -3.19041 
84 1 1 0.023272 -0.0118009 0.0106602 0 0 0 -4.70968e-07 -5.95745e-08 3.09999e-06 2.47775e-06 -3.04605e-07 -1.99941e-06 -9.09556e-05 0.000110556 -5.30781e-05 0.004 740.364 -3.15306 
180 1 1 0.0438204 -0.0140997 0.0110465 0 0 0 -9.04221e-08 -2.09101e-07 3.16112e-07 7.18497e-07 -1.12639e-07 -6.7461e-07 6.55584e-05 -6.24378e-05 -3.42976e-05 0.004 789.803 -1.48027 
103 1 1 0.0174441 -0.0063656 0.0105707 0 0 0 2.59956e-07 1.22428e-07 3.05428e-06 1.90042e-06 -1.21898e-06 -2.03014e-06 -3.18298e-05 8.43908e-05 -4.96813e-05 0.004 708.163 -3.21087 
156 1 1 0.0308891 -0.00946111 0.01063 0 0 0 -6.67646e-07 -3.06114e-07 1.99655e-06 2.6304e-06 3.60707e-07 -2.4995e-06 8.51907e-06 -7.72249e-06 -5.30052e-05 0.004 764.128 -2.68283 
197 1 1 -0.0457831 -0.0047112 0.0107571 0 0 0 -6.51268e-07 7.36349e-07 3.49048e-07 8.32833e-07 -1.2697e-06 8.84649e-07 -3.07714e-05 -3.66522e-05 -4.29612e-05 0.004 308.596 1.27521 
87 1 1 -0.0386059 -0.00381152 0.0141381 0 0 0 -6.35492e-07 1.99455e-06 1.75538e-06 2.01653e-06 -4.75815e-06 3.37265e-06 0.000258898 0.000130898 0.000170334 0.004 313.953 1.60533 
130 1 1 -0.0313597 -0.00387381 0.0107775 0 0 0 -1.69748e-06 4.01874e-06 2.13996e-06 5.20745e-06 -1.18561e-06 5.00245e-06 -0.00102532 -0.000319731 0.000341136 0.004 329.177 2.25456 
604 1 1 -0.0224595 -0.000300837 0.0110795 0 0 0 -2.10825e-06 2.86078e-06 8.78586e-07 9.46764e-07 -5.47676e-07 5.1801e-06 -0.000325964 -0.000265086 0.000249146 0.004 371.97 2.74 
146 1 1 -0.0155078 -0.00400724 0.0103913 0 0 0 -5.6465e-07 3.50331e-06 2.54896e-06 1.06199e-06 -3.90793e-08 1.52113e-06 -0.000630311 0.000200621 2.79899e-05 0.004 416.488 2.4578 
57 1 1 -0.00517523 -0.00310604 0.0111954 0 0 0 7.24334e-07 2.24603e-06 3.20759e-06 7.52802e-07 4.18531e-07 4.6508e-07 8.11303e-05 4.91537e-05 -1.71485e-06 0.004 508.486 0.87802 
493 1 1 0.0116956 -0.000875018 0.0103666 0 0 0 9.7641e-07 -9.28573e-08 2.91576e-06 1.71382e-06 -1.57479e-06 -1.45587e-06 -0.000375356 0.000106423 -0.000133222 0.004 669.772 -2.73938 
31 1 1 0.0250484 -0.00405415 0.0104601 0 0 0 -1.65783e-07 -1.22362e-07 2.65161e-06 2.33931e-06 -3.11598e-07 -2.1829e-06 -0.000130167 5.63156e-05 -4.18287e-05 0.004 742.74 -3.01529 
588 1 1 0.0325998 -0.00174523 0.0105431 0 0 0 -2.09876e-07 -6.71371e-07 2.28258e-06 1.93165e-06 4.401e-07 -2.61968e-06 0.000131872 -4.1607e-05 -6.85152e-05 0.004 765.273 -2.53401 
63 1 1 0.045924 -0.00327879 0.0119253 0 0 0 -3.1824e-07 -5.34404e-07 5.65974e-07 9.04975e-07 -2.75887e-08 -9.86169e-07 -1.62253e-05 1.30582e-05 -1.75471e-05 0.004 790.127 -1.39835 
107 1 1 -0.00850634 -0.045273 0.017677 0 0 0 -4.81322e-07 1.6876e-06 6.18685e-07 5.60014e-07 1.58487e-07 1.55024e-06 -0.000120481 -0.00030899 0.00025125 0.004 479.473 1.9079 
222 1 1 -0.00141961 -0.0418101 0.0171129 0 0 0 -6.90114e-07 3.11275e-06 2.08684e-06 7.95762e-07 -1.04779e-06 5.91436e-07 0.000456837 9.96721e-05 -8.44197e-05 0.004 540.876 0.298309 
142 1 1 0.00615863 -0.0401388 0.0154212 0 0 0 -1.02687e-07 2.17352e-06 1.93341e-06 2.83934e-07 -1.05855e-06 -1.16183e-06 0.000262988 0.000127941 -0.000204671 0.004 599.333 -1.31989 
172 1 1 0.0116013 -0.0446446 0.0189547 0 0 0 1.44669e-07 6.99053e-07 3.88922e-07 2.91007e-07 -6.02114e-07 -1.22146e-06 8.37901e-05 0.000104973 -6.35345e-05 0.004 637.337 -2.3401 
109 1 1 0.0204197 -0.0412797 0.0183142 0 0 0 4.64602e-07 1.78469e-07 8.90986e-08 6.39813e-07 2.27039e-07 -9.78029e-07 0.000180666 -8.61319e-05 -0.000183327 0.004 703.812 -3.67622 
150 1 1 -0.0273271 -0.0370832 0.0158763 0 0 0 3.66605e-07 1.80759e-06 6.51885e-07 1.7144e-07 8.83806e-08 1.83679e-06 6.01871e-05 -7.07244e-06 0.00014531 0.004 357.925 3.42012 
38 1 1 -0.0197788 -0.0373719 0.0182823 0 0 0 1.9708e-08 4.04153e-06 1.81888e-06 -3.22692e-07 5.8718e-07 5.05322e-06 0.000380941 -0.000224657 0.000292332 0.004 389.865 3.42233 
199 1 1 -0.0118545 -0.0370266 0.01765 0 0 0 -1.97706e-07 5.08344e-06 2.66886e-06 -4.65213e-07 1.01824e-06 4.1069e-06 -0.000298969 0.000116853 -0.000166556 0.004 427.365 3.02431 
93 1 1 0.0137643 -0.0377759 0.0156808 0 0 0 4.14485e-07 1.41463e-06 1.45214e-06 5.42795e-07 -7.30226e-07 -1.6956e-06 0.000262875 8.21417e-05 -4.97789e-05 0.004 659.978 -2.79053 
64 1 1 0.0280176 -0.0365092 0.0179286 0 0 0 -6.30455e-07 -9.53351e-08 2.43002e-07 1.18818e-06 8.53988e-07 -5.34039e-07 0.000167831 -6.07678e-05 0.00019108 0.004 746.801 -3.51219 
22 1 1 -0.0327402 -0.032422 0.0194567 0 0 0 2.37008e-07 2.79686e-06 7.87416e-07 1.8707e-07 -4.17821e-07 1.20627e-06 1.34846e-05 -0.000191682 0.000271973 0.004 338.002 2.93459 
174 1 1 -0.0224319 -0.0302105 0.0162617 0 0 0 -5.36268e-07 5.5057e-06 2.50604e-06 6.88713e-07 -1.63836e-07 2.87322e-06 -0.000155379 -0.000249642 -4.02804e-05 0.004 375.06 3.37362 
32 1 1 -0.0042831 -0.0343967 0.0166775 0 0 0 4.00017e-07 4.97342e-06 3.50593e-06 -2.43596e-07 -2.24843e-06 8.47036e-07 -0.000345174 -0.00012253 -0.000381142 0.004 510.89 1.08905 
128 1 1 0.00347459 -0.033132 0.0179959 0 0 0 3.06452e-07 3.67311e-06 4.60989e-06 6.37048e-07 -2.45881e-06 -1.91472e-06 -8.34062e-05 -5.91404e-05 -7.32047e-05 0.004 573.67 -0.66738 
88 1 1 0.0113687 -0.0304834 0.01771 0 0 0 3.59435e-07 2.09732e-06 3.82993e-06 9.05622e-07 -4.94789e-07 -1.91686e-06 5.76592e-05 -2.99922e-05 -0.000105581 0.004 656.514 -2.63044 
137 1 1 0.0208046 -0.0338186 0.0156334 0 0 0 1.19358e-06 7.61009e-07 1.08621e-06 1.25756e-07 -2.36774e-08 -8.95824e-07 0.000108084 0.000652382 -0.000141056 0.004 718.596 -3.65303 
154 1 1 0.033982 -0.0311387 0.0180551 0 0 0 -2.87541e-07 -1.16171e-07 -7.07569e-08 7.45537e-07 4.07694e-07 -8.12405e-07 5.86269e-05 1.84378e-05 -2.94682e-05 0.004 770.01 -2.56997 
52 1 1 -0.031991 -0.0252343 0.0161625 0 0 0 -3.41596e-07 5.09068e-06 2.45536e-06 8.81231e-08 -4.16859e-07 1.56231e-06 -0.000143559 -0.000133903 0.000514754 0.004 335.544 2.67546 
80 1 1 -0.00960099 -0.0265066 0.0175805 0 0 0 1.72382e-07 6.46795e-06 5.52866e-06 8.39067e-07 -2.3508e-06 6.15013e-07 -0.000173556 -5.82739e-05 -0.000160486 0.004 455.755 2.19807 
125 1 1 -0.00117362 -0.0267001 0.0173742 0 0 0 5.23358e-07 4.04286e-06 5.65424e-06 -1.32658e-07 -2.67623e-06 -1.27935e-06 0.000481465 -0.000419942 4.25052e-05 0.004 537.059 0.337768 
72 1 1 0.0179273 -0.0264316 0.015637 0 0 0 8.19103e-07 1.41885e-06 4.46373e-06 1.05213e-08 -5.12173e-07 -1.62036e-06 0.000445682 0.00023077 0.000118625 0.004 700.316 -3.37149 
34 1 1 0.0269647 -0.0287251 0.0154182 0 0 0 -6.46052e-07 1.94953e-08 5.38558e-07 1.38893e-06 7.17329e-07 -1.18334e-06 0.000185872 -2.27975e-05 0.00018582 0.004 752.17 -2.9915 
218 1 1 -0.0395968 -0.0234663 0.0176916 0 0 0 -3.61242e-07 2.34712e-06 1.31616e-06 -9.67853e-08 -5.93112e-07 8.95833e-07 -6.92366e-05 -0.000185339 0.000216795 0.004 318.608 1.99739 
70 1 1 -0.0247175 -0.0230258 0.0185786 0 0 0 -6.55624e-07 7.11216e-06 3.63069e-06 9.27516e-07 -9.56589e-07 2.00204e-06 0.000346158 -0.000134776 -9.90863e-05 0.004 358.429 2.94229 
132 1 1 -0.0171323 -0.0242634 0.0164744 0 0 0 -2.90802e-07 6.53672e-06 4.19617e-06 5.09876e-07 -1.23999e-06 1.73008e-06 -1.3394e-05 -0.00025815 9.04682e-05 0.004 395.45 3.05642 
196 1 1 0.0071665 -0.023789 0.0170602 0 0 0 -2.05098e-07 2.145e-06 6.2396e-06 8.25933e-07 -1.34307e-06 -2.85697e-06 0.000211055 0.000120566 0.000120499 0.004 630.291 -1.97208 
362 1 1 0.0243874 -0.0214292 0.0170617 0 0 0 -1.31492e-06 2.849e-07 3.7134e-06 2.84975e-06 5.41861e-07 -2.19232e-06 0.000227141 0.000654339 -6.25145e-05 0.004 751.134 -2.99663 
49 1 1 0.0387627 -0.0248027 0.0179815 0 0 0 -4.42191e-07 -1.63789e-07 1.34257e-07 7.87864e-07 1.99205e-07 -7.25375e-07 4.17075e-05 -4.48897e-05 5.40411e-05 0.004 780.543 -2.11273 
173 1 1 -0.0431191 -0.0163148 0.0177078 0 0 0 -5.91519e-07 2.16494e-06 1.16281e-06 9.06211e-07 -1.21436e-06 8.40685e-07 -0.000152511 -0.00024318 0.000402956 0.004 314.72 1.6817 
50 1 1 -0.0295064 -0.0167659 0.0182812 0 0 0 -9.8089e-07 7.94227e-06 4.62703e-06 2.17034e-06 -8.88017e-07 4.31197e-06 -0.000222247 0.000228391 1.08798e-05 0.004 337.826 2.46965 
202 1 1 -0.0134619 -0.0172167 0.0161107 0 0 0 5.30702e-07 6.82791e-06 5.37328e-06 8.61015e-07 -2.36101e-06 -1.59741e-07 -0.000219393 -5.78912e-05 -0.000328356 0.004 426.207 2.51047 
86 1 1 -0.00524866 -0.0199157 0.0183758 0 0 0 1.34302e-06 5.5376e-06 7.08162e-06 1.71915e-06 -3.37042e-06 -6.44556e-07 3.17771e-05 7.55312e-05 -0.000255647 0.004 504.8 1.09269 
129 1 1 0.0138597 -0.0196295 0.016286 0 0 0 -3.41542e-07 2.08053e-06 5.96848e-06 9.18719e-07 -6.47887e-07 -2.7573e-06 -4.57195e-05 -0.000200049 9.61662e-06 0.004 680.953 -2.88679 
82 1 1 0.0291401 -0.0151359 0.0159325 0 0 0 -1.27823e-06 -2.27751e-08 2.40528e-06 2.62354e-06 5.63733e-07 -2.36246e-06 -2.30756e-05 -9.82648e-05 6.33642e-05 0.004 764.696 -2.66604 
1 1 1 0.0424682 -0.0178049 0.0178803 0 0 0 -6.09069e-07 -1.26663e-07 2.68984e-07 8.70035e-07 2.89102e-07 -8.19543e-07 -1.83428e-05 -3.51102e-05 2.03813e-05 0.004 786.499 -1.70158 
168 1 1 -0.0224798 -0.0136303 0.0164169 0 0 0 -8.34058e-07 6.81722e-06 3.20003e-06 1.44825e-06 -2.4292e-07 4.90313e-06 -0.00017329 -0.000279968 -3.20319e-06 0.004 368.853 2.91653 
121 1 1 -0.00514898 -0.0120184 0.0174569 0 0 0 1.59395e-06 4.68687e-06 6.27956e-06 7.42174e-07 -3.45907e-06 -2.38751e-06 -0.000266656 9.39434e-05 3.71815e-05 0.004 512.472 0.809854 
28 1 1 0.00814309 -0.0139813 0.0183178 0 0 0 1.92095e-06 2.20632e-06 7.98085e-06 1.14527e-06 -2.60316e-06 -4.06213e-06 0.000166183 0.000378266 -0.000151526 0.004 639.276 -2.24073 
42 1 1 0.0200408 -0.0148104 0.0172661 0 0 0 -4.29615e-07 1.48499e-06 6.25673e-06 2.91136e-06 -2.97952e-07 -3.53994e-06 -5.24012e-05 0.000130248 -0.00018084 0.004 725.664 -3.09887 
60 1 1 0.0376281 -0.0116471 0.016172 0 0 0 -7.85116e-07 -9.10727e-07 1.44783e-06 2.65746e-06 6.33791e-07 -2.43925e-06 -3.05264e-05 -0.000492444 -0.000373466 0.004 784.593 -1.77823 