ITEM: TIMESTEP
12800
ITEM: NUMBER OF ATOMS
890
ITEM: BOX BOUNDS mm mm mm
-0.05 0.05
-0.05 0.05
0 0.15
ITEM: ATOMS id type type x y z ix iy iz vx vy vz fx fy fz omegax omegay omegaz radius f_Temp[0] f_heatFlux[0] 
59 1 1 -0.000714243 -0.0460988 0.00395624 0 0 0 -8.49322e-05 -1.30409e-05 -8.81782e-05 -0.000216781 -6.442e-05 1.40308e-05 -0.00742976 -0.0572649 0.0296531 0.004 300 0 
170 1 1 -0.0173491 -0.0426414 0.00397341 0 0 0 2.4402e-05 -2.93528e-05 -3.30603e-05 -2.35477e-05 2.51419e-05 0.000268596 0.0090935 0.0289042 -0.0293373 0.004 300 0 
15 1 1 -0.00974911 -0.0449634 0.00393429 0 0 0 -0.000107071 -6.43772e-05 8.89418e-06 -2.1294e-06 7.87544e-05 0.000189702 0.014956 -0.0431527 0.0252537 0.004 300 0 
116 1 1 0.00648865 -0.0428222 0.00395628 0 0 0 -3.4901e-05 0.000112707 0.000230914 -0.000368168 2.70198e-05 8.11874e-06 0.00892606 -0.0212385 -0.0148334 0.004 300 0 
158 1 1 0.0143646 -0.043762 0.00389928 0 0 0 2.6829e-05 6.29002e-05 0.000181268 -6.92775e-05 0.000100523 7.22944e-06 -0.0104351 0.0171605 -0.00782288 0.004 300 0 
98 1 1 0.021681 -0.0406515 0.00394027 0 0 0 5.89175e-05 -1.28139e-05 7.94477e-05 -9.17012e-06 0.00017967 -0.000184805 -0.00112993 0.00576028 -0.000344896 0.004 300 0 
169 1 1 -0.024431 -0.0390656 0.0039148 0 0 0 -9.75372e-05 1.54608e-06 -2.37691e-05 1.1964e-05 -3.6747e-05 1.05174e-05 -0.00331664 -0.0205565 0.0173267 0.004 300 0 
89 1 1 -0.0118083 -0.0369245 0.00395608 0 0 0 8.25291e-05 -3.2669e-06 1.12234e-05 -3.24676e-05 9.75887e-05 0.000207198 0.0315705 0.0131137 0.0497796 0.004 300 0 
152 1 1 -0.0041791 -0.0390211 0.00390772 0 0 0 0.00015255 -4.95274e-05 -4.8412e-05 -0.00013632 1.76755e-05 0.000205322 0.0198407 0.0215318 -0.071099 0.004 300 0 
23 1 1 0.0153518 -0.0358848 0.00390795 0 0 0 0.000144821 -2.03409e-05 0.000240311 -0.000212534 -4.609e-05 -0.000279628 0.0272727 0.0358191 -0.0192495 0.004 300 0 
118 1 1 -0.030753 -0.0342396 0.00392776 0 0 0 -0.000156809 -1.59736e-05 2.98633e-05 7.51538e-05 -1.37678e-06 -2.77209e-05 0.0120434 -0.0259484 -0.00100344 0.004 300 0 
30 1 1 -0.0188766 -0.0333731 0.00395456 0 0 0 -0.000120285 -2.72202e-05 -4.15553e-05 3.57769e-05 -2.80867e-05 0.000149619 -0.0195774 -0.033193 -0.0138502 0.004 300 0 
215 1 1 -0.00603787 -0.0313227 0.00390847 0 0 0 0.000261265 -0.000110131 4.21043e-05 5.97382e-05 2.36931e-05 8.5302e-05 0.0310134 0.06116 0.0527394 0.004 300 0 
74 1 1 0.00184602 -0.03382 0.00390948 0 0 0 0.000212426 -0.00011353 5.2257e-05 6.91408e-05 -0.000349656 3.38631e-05 0.0092305 0.0162479 0.00271458 0.004 300 0 
24 1 1 0.00918428 -0.0308334 0.00391557 0 0 0 0.000105426 -3.18104e-05 0.000181997 -0.000217905 -0.000314034 -0.00018031 -0.0395366 -0.00195907 0.034286 0.004 300 0 
198 1 1 0.0259047 -0.0339199 0.00395662 0 0 0 0.000219754 -0.000226277 8.05056e-05 -0.000490039 0.00058147 -0.00035893 0.0495429 0.032911 -0.0120183 0.004 300 0 
161 1 1 0.0335136 -0.0316269 0.00391934 0 0 0 0.000130207 0.000141573 0.000121848 -0.000146169 -0.000361498 -0.00043262 0.00547813 0.0403959 -0.0745765 0.004 300 0 
8 1 1 -0.032272 -0.026418 0.00398439 0 0 0 -0.000103199 -2.48226e-06 -7.12647e-05 2.23947e-05 -0.000102457 0.000151748 -0.0276917 0.00636698 -0.00787293 0.004 300 0 
12 1 1 -0.0244157 -0.0276998 0.00386402 0 0 0 -0.000161382 -4.0791e-05 -8.14141e-07 9.65031e-05 -6.11268e-05 -0.00011689 0.00118648 -0.033627 0.0178392 0.004 300 0 
188 1 1 -0.0131758 -0.0277762 0.00396721 0 0 0 -5.0387e-05 -9.39498e-05 0.000100272 0.000365538 -0.000124122 0.000107211 -0.00313605 -0.038537 -0.000744315 0.004 300 0 
77 1 1 -9.91056e-05 -0.0260833 0.00389854 0 0 0 0.000252762 -0.000222517 0.000210823 0.000223916 -0.000149559 1.83237e-05 0.0988518 0.0279404 -0.0842978 0.004 300 0 
113 1 1 0.0165724 -0.0280204 0.00388472 0 0 0 0.000121611 -6.28333e-05 4.15066e-05 -0.000159579 1.72331e-06 -7.64001e-06 -0.00372437 0.0237839 0.00040567 0.004 300 0 
183 1 1 0.0384445 -0.025389 0.00393794 0 0 0 4.01934e-05 1.70585e-05 4.22257e-05 6.47843e-05 0.000123789 -0.000237554 0.00753478 -0.00400719 0.049243 0.004 300 0 
162 1 1 -0.0396314 -0.0234166 0.00390932 0 0 0 4.94856e-05 1.05566e-05 -7.22385e-07 -2.48663e-05 7.59969e-05 6.05308e-05 -0.00401212 0.0184589 -0.00879942 0.004 300 0 
53 1 1 -0.0272096 -0.0202511 0.00395355 0 0 0 0.000146132 -0.000198067 -5.48959e-05 -3.71451e-05 -5.4635e-05 -1.80284e-05 0.0279784 -0.00363001 -0.112374 0.004 300 0 
148 1 1 -0.0187621 -0.0220673 0.00393868 0 0 0 -0.000100611 -6.11214e-05 3.68845e-05 0.000428729 -0.000252766 5.21202e-05 0.00801882 -0.00852077 -0.036069 0.004 300 0 
195 1 1 -0.0072865 -0.0215539 0.00394781 0 0 0 0.000360614 -0.000134832 6.56199e-05 0.000288343 -0.00034529 -0.000114667 0.0306721 0.0584244 0.127124 0.004 300 0 
179 1 1 0.00734533 -0.0231057 0.00393909 0 0 0 0.000186758 -0.00022333 0.000326655 0.000123437 -0.000124074 2.66095e-05 0.0924793 0.0676167 -0.0739923 0.004 300 0 
95 1 1 0.0148478 -0.0203095 0.00392964 0 0 0 -0.000129961 -0.000282199 3.74274e-05 0.00023556 0.000452646 -0.00032567 0.0461905 -0.0564382 0.0554149 0.004 300 0 
76 1 1 0.0230054 -0.0233006 0.00397018 0 0 0 0.000121776 9.92158e-05 2.0308e-05 0.000553805 0.000505049 -5.79789e-05 -0.00956867 0.00956795 -0.0111188 0.004 300 0 
100 1 1 0.0325684 -0.0200851 0.00388743 0 0 0 0.000128533 -3.44971e-05 0.00036254 -0.000191679 4.77609e-05 -0.000176354 0.0398331 0.0621875 -0.0413944 0.004 300 0 
65 1 1 -0.0430758 -0.0162786 0.003934 0 0 0 6.02737e-05 3.18784e-05 1.86463e-05 3.51479e-05 0.000168948 4.66813e-05 0.00280536 0.00539316 0.00846024 0.004 300 0 
102 1 1 -0.0351609 -0.0155062 0.00394489 0 0 0 0.000143778 -0.000155845 -8.76065e-05 -0.000263788 0.000364959 7.22578e-05 0.0459835 0.0312668 -0.0896862 0.004 300 0 
213 1 1 -0.0132623 -0.0162739 0.00397356 0 0 0 2.87119e-06 -0.000256936 0.000153602 0.000273325 -0.000319284 3.90884e-05 0.0338092 -0.0379683 -0.0280005 0.004 300 0 
10 1 1 0.00113408 -0.0182514 0.00474064 0 0 0 0.000285401 -0.000220278 0.00048317 0.000125885 -0.000134895 -3.74797e-05 -0.0572803 -0.138877 0.0640849 0.004 300 0 
5 1 1 0.00879313 -0.0152589 0.00390582 0 0 0 -0.000118153 -0.000332093 -0.000118462 0.000202626 0.000129547 -7.34663e-05 0.0860539 -0.0515747 -0.0802008 0.004 300 0 
96 1 1 0.0211658 -0.0155225 0.00395487 0 0 0 0.00013918 -5.86088e-05 0.000125096 0.000181914 0.000222655 -0.00018599 -0.0368139 0.0372587 -0.0437982 0.004 300 0 
167 1 1 0.0421887 -0.0183792 0.00392138 0 0 0 -0.000200998 0.000109762 9.55071e-05 -0.00014599 -0.000164364 2.11121e-05 -0.0396743 -0.048564 -0.000515915 0.004 300 0 
124 1 1 -0.0290069 -0.0104708 0.00394668 0 0 0 0.00033413 -0.000275996 -0.000220143 -4.39521e-05 2.45171e-05 -7.45758e-05 0.0606749 0.100928 0.0582966 0.004 300 0 
220 1 1 -0.0217766 -0.0144579 0.00398152 0 0 0 0.000354817 -0.000331766 5.04596e-05 -0.00012295 -0.000518844 -0.000262132 0.064629 0.0568624 0.0894446 0.004 300 0 
144 1 1 -0.00536382 -0.0138015 0.00388143 0 0 0 0.000274938 -0.000168624 0.000146476 1.65964e-05 -0.000245293 8.02398e-06 0.0211517 0.0722568 -0.0634511 0.004 300 0 
26 1 1 0.00255051 -0.0104653 0.00390861 0 0 0 0.000132424 -7.33233e-05 1.62816e-05 2.59222e-05 -5.60154e-05 9.58823e-05 -0.00667049 0.040276 -0.0149266 0.004 300 0 
194 1 1 0.0287344 -0.013103 0.00393192 0 0 0 0.000208059 8.45366e-05 2.95937e-05 2.99528e-05 0.000107408 0.000207713 -0.0120239 0.021043 0.1003 0.004 300 0 
37 1 1 0.0366689 -0.012235 0.00393347 0 0 0 0.000411784 -0.000104207 0.000522246 -2.94338e-05 7.43945e-05 -0.000339628 0.0630332 0.0944088 -0.167652 0.004 300 0 
219 1 1 0.0447271 -0.0108801 0.00390704 0 0 0 -0.000156686 5.39212e-05 0.000198025 -0.000107435 9.02175e-05 0.000400436 -0.0276485 -0.03677 -0.0299472 0.004 300 0 
636 1 1 -0.0451998 -0.00864095 0.00392087 0 0 0 9.66713e-05 1.63512e-05 4.8719e-05 6.01142e-05 7.11448e-05 0.000115754 0.000978405 0.0221894 -0.00415347 0.004 300 0 
39 1 1 -0.0161497 -0.00885189 0.00388871 0 0 0 0.000180201 -0.000141345 9.29013e-05 -3.31971e-05 -0.000368879 -0.000154504 -0.00400082 0.0085347 -0.0248188 0.004 300 0 
171 1 1 -0.00396282 -0.0059778 0.00392252 0 0 0 0.000117111 -3.45244e-05 9.23981e-05 -0.000245133 -0.000165099 2.89327e-05 -0.0448704 0.0281148 0.0392949 0.004 300 0 
200 1 1 0.0146231 -0.00986229 0.00396386 0 0 0 0.000130219 -0.000369858 -9.50275e-05 1.38044e-06 0.000306156 0.00060459 0.0145932 0.0559861 0.0494427 0.004 300 0 
21 1 1 0.0222473 -0.00762133 0.00394207 0 0 0 0.000140283 -4.61104e-05 -0.000114802 0.000272352 0.000209667 0.000687425 0.00968817 0.00540788 0.0426353 0.004 300 0 
17 1 1 0.0298471 -0.00521048 0.00394863 0 0 0 0.000211691 9.88514e-05 -0.000139833 2.97401e-05 0.000215555 0.000552924 -0.0266216 0.0444594 -0.0541305 0.004 300 0 
477 1 1 -0.0445898 -0.000710278 0.00396414 0 0 0 0.000145749 2.53694e-05 0.000105935 1.63992e-05 2.7015e-05 0.000202255 0.00547204 0.0162508 -0.009047 0.004 300 0 
140 1 1 -0.0352689 -0.0037159 0.00387145 0 0 0 5.26158e-06 9.55691e-07 0.000131951 1.17408e-05 7.62627e-05 0.000278307 0.018958 0.00404243 -0.0434553 0.004 300 0 
119 1 1 -0.0273907 -0.00269705 0.00396341 0 0 0 9.96668e-05 -0.000173001 -1.56377e-05 -5.07759e-06 7.01362e-06 9.11817e-05 0.0419585 0.0374361 -0.00369599 0.004 300 0 
207 1 1 -0.019493 -0.0016882 0.00389469 0 0 0 0.000192759 -0.000229491 6.3082e-06 -5.77238e-05 -0.00013125 7.3337e-06 0.0169785 0.0305366 0.0230785 0.004 300 0 
69 1 1 -0.0111606 -0.00264536 0.00392952 0 0 0 0.000214721 -0.000123769 0.000106497 -2.58599e-05 -0.000387038 -0.00019962 0.0246281 0.0151268 -0.00890024 0.004 300 0 
221 1 1 0.00874816 -0.00447744 0.00393048 0 0 0 -6.68292e-05 -0.000413146 3.5721e-05 3.23986e-05 -9.82896e-05 0.000159953 0.0563666 -0.00993614 -0.0721133 0.004 300 0 
457 1 1 0.0163558 -0.00207751 0.00395651 0 0 0 -0.000280256 -0.000233868 -0.000145305 0.000203843 0.000223293 0.000478188 0.0175104 -0.0512265 0.0901588 0.004 300 0 
155 1 1 0.0378934 -0.00225081 0.00393419 0 0 0 0.000541222 5.1343e-05 0.000159374 0.000217856 0.000516673 0.00111976 0.0263372 0.104207 0.106721 0.004 300 0 
665 1 1 0.045918 -0.00308245 0.0039417 0 0 0 -8.77537e-05 1.76942e-05 0.000150237 -0.00018179 -0.00037283 0.000511838 0.0233026 -0.00980103 0.0187094 0.004 300 0 
120 1 1 0.00918315 -0.0371111 0.00876163 0 0 0 0.000258521 8.86785e-05 0.000478125 -0.000481032 -0.000226505 -0.000273193 0.00191004 0.0279126 -0.0586893 0.004 300 0 
9 1 1 -0.0247124 -0.0333593 0.00937874 0 0 0 -0.00024203 -3.09204e-05 -8.50653e-05 0.000162043 7.72505e-05 5.64652e-05 0.00371578 -0.000945108 0.0241832 0.004 300 0 
101 1 1 -0.0188642 -0.0277198 0.00955451 0 0 0 -0.000257576 -6.01726e-05 -7.4114e-06 0.000205984 4.41992e-05 1.11597e-05 0.0179398 -0.00390916 0.0281481 0.004 300 0 
48 1 1 0.0221925 -0.0292837 0.00922908 0 0 0 0.000287108 -5.33743e-05 -7.31991e-06 -0.000580646 -0.000395105 -0.00023677 -0.0752691 0.025198 -0.046363 0.004 300 0 
75 1 1 0.0293569 -0.0261746 0.0078626 0 0 0 0.000179727 9.27707e-05 0.000494798 -0.000157186 -0.000341326 -0.000475967 0.157262 -0.129761 0.0383706 0.004 300 0 
46 1 1 -0.032799 -0.0205735 0.00958414 0 0 0 9.13194e-05 -1.2125e-05 -1.88778e-05 -0.000243648 2.71196e-05 -0.000262808 -0.0697755 -0.0232173 0.0190583 0.004 300 0 
33 1 1 -0.0130382 -0.0220235 0.0094966 0 0 0 5.71276e-05 -0.000119701 -6.04646e-05 0.000674106 -0.000114085 0.000241354 -0.0267669 0.0721042 0.00504892 0.004 300 0 
11 1 1 0.0268971 -0.0187472 0.00924277 0 0 0 -3.70643e-05 0.000329377 0.000313227 0.000715849 0.00015627 -1.37381e-05 -0.0619039 -0.172298 -0.0668772 0.004 300 0 
71 1 1 -0.0372787 -0.00953832 0.00877248 0 0 0 0.000195766 -3.53245e-05 0.000121042 9.82879e-05 0.000238023 0.000333639 -0.0104458 0.0304567 0.0728599 0.004 300 0 
62 1 1 -0.0228085 -0.00771139 0.00813996 0 0 0 3.11621e-06 -0.000268287 -0.000168963 0.000234292 -0.000473372 -0.000159747 0.0151184 -0.119089 0.0351083 0.004 300 0 
19 1 1 -0.00971127 -0.00905049 0.00849317 0 0 0 0.000349182 -0.000200575 0.000221228 -0.000204771 -0.000461877 -0.000148913 -0.0129141 -0.00369696 0.0393318 0.004 300 0 
187 1 1 0.00796889 -0.00987288 0.00975106 0 0 0 -0.000218145 -0.000395915 0.000231071 0.000712757 -0.000209708 0.000117054 -0.0318088 -0.044405 0.0494902 0.004 300 0 
157 1 1 0.039584 -0.00752111 0.00962624 0 0 0 0.000429726 0.000348801 0.00065735 0.000108266 -0.0012739 0.000683722 -0.177764 -0.26651 -0.0151478 0.004 300 0 
18 1 1 0.00229431 -0.004054 0.00853111 0 0 0 -0.000130049 2.35105e-05 -8.42982e-05 1.97749e-05 -0.000136756 -0.000222171 -0.00105423 0.115488 0.170285 0.004 300 0 
185 1 1 -0.00530949 -0.0457353 0.0104445 0 0 0 0.000176532 -5.52348e-05 -0.000129508 3.09199e-05 -0.000109945 8.98295e-05 -0.0112464 0.135594 -0.00187556 0.004 300 0 
83 1 1 0.00256971 -0.045949 0.0112598 0 0 0 0.000199815 3.26376e-05 -5.07382e-05 -0.000151982 9.11494e-05 0.000355486 0.0202395 -0.148501 -0.00955307 0.004 300 0 
58 1 1 -0.0218551 -0.0405826 0.0112766 0 0 0 -0.00020462 1.94146e-05 -0.000160244 0.000130951 -2.84869e-05 -0.000173077 -0.000155576 0.0376492 0.0436675 0.004 300 0 
105 1 1 -0.0135845 -0.0439655 0.0108785 0 0 0 0.000203082 -5.05573e-05 -0.000179871 0.000255396 -0.000384614 0.00066619 -0.0474206 0.0261473 -0.0671815 0.004 300 0 
223 1 1 0.0103966 -0.0448713 0.0106621 0 0 0 0.000158048 0.000118826 0.000346858 8.67754e-05 0.000225648 0.000247577 0.0360941 0.0223095 -0.00653227 0.004 300 0 
217 1 1 0.0179378 -0.0424252 0.010837 0 0 0 0.000192038 0.000135663 0.000320229 -3.79645e-06 4.87128e-05 3.95935e-06 0.0141315 0.0405721 -0.0286071 0.004 300 0 
6 1 1 -0.0162586 -0.0350302 0.0113189 0 0 0 -0.000194927 -0.000107819 -0.000410672 0.000366484 -8.61411e-05 4.02953e-05 0.0490451 0.101918 -0.067294 0.004 300 0 
151 1 1 -0.00800914 -0.0382606 0.010816 0 0 0 0.000207266 -0.000203437 -7.76754e-05 0.000189176 1.07029e-05 0.000426267 0.0472567 -0.0357075 0.0168682 0.004 300 0 
2 1 1 0.000449637 -0.03831 0.0102769 0 0 0 0.000233076 -4.40643e-05 0.000200112 -1.95012e-05 -0.000158238 0.000275257 -0.0369402 -0.0524837 0.0831185 0.004 300 0 
117 1 1 0.0249161 -0.0387366 0.0109215 0 0 0 0.000111166 -3.46931e-05 0.000268481 2.42827e-06 -4.0813e-05 -0.000382919 0.0512275 0.0174318 -0.00932345 0.004 300 0 
13 1 1 -0.0323445 -0.0327542 0.0115389 0 0 0 -5.91678e-05 -2.77598e-05 0.000135868 -5.25517e-05 7.68142e-05 -0.000208214 0.00507883 0.0534117 -0.0198948 0.004 300 0 
193 1 1 -0.00981973 -0.0305021 0.0107785 0 0 0 -6.69199e-05 -0.000247673 -0.000267239 0.000131068 0.000113334 0.000301317 -0.0688357 -0.166248 0.0393321 0.004 300 0 
47 1 1 -0.00138917 -0.0305628 0.0103714 0 0 0 0.000402326 -0.000220502 5.35793e-07 0.000352951 -2.11824e-05 0.000214977 0.00301094 0.0299679 0.112789 0.004 300 0 
153 1 1 0.00651616 -0.0300213 0.0113317 0 0 0 0.000579321 -0.000401786 0.00077843 1.76699e-05 -3.17945e-06 7.06332e-06 -0.0376216 -0.061994 0.0816848 0.004 300 0 
41 1 1 0.0148018 -0.0317969 0.0106393 0 0 0 0.000364437 1.1536e-05 0.000473921 -0.000449468 -0.000409699 -0.000414305 -0.0382983 0.0488741 0.0544423 0.004 300 0 
163 1 1 0.0311423 -0.0339235 0.0111341 0 0 0 0.000117536 -0.000155434 0.000122153 0.00011852 -0.000434017 -0.000785086 0.0362485 0.0335305 0.0140403 0.004 300 0 
214 1 1 -0.0375018 -0.026825 0.0107168 0 0 0 2.51902e-05 1.99484e-05 0.000124097 -4.63316e-05 -4.76645e-05 -0.000222833 -0.0148043 -0.0440417 -0.00920567 0.004 300 0 
210 1 1 0.0364599 -0.0281038 0.0111165 0 0 0 0.000132843 -7.11597e-05 1.56894e-05 0.000140106 -0.000158925 -0.000609655 0.025134 0.0225659 -0.00548415 0.004 300 0 
108 1 1 -0.0260994 -0.0246389 0.0109253 0 0 0 -0.000137365 -5.1182e-05 0.00013561 0.000123395 -9.2314e-05 -0.000454155 0.0280043 0.012799 -0.0686379 0.004 300 0 
40 1 1 -0.00551595 -0.0238652 0.0113361 0 0 0 -2.90092e-05 -0.000397551 -9.15197e-06 0.000514671 -0.000145917 -6.7511e-05 0.0420616 -0.0970066 -0.11288 0.004 300 0 
55 1 1 0.00235885 -0.0232606 0.0108247 0 0 0 -1.4445e-05 -0.000584838 0.000632261 0.000652518 -0.000402115 -0.000184015 -0.0146449 -0.103979 0.0686375 0.004 300 0 
91 1 1 0.0120709 -0.0243899 0.0101741 0 0 0 0.00010855 -0.000397292 0.000274472 0.000713828 -7.14357e-05 -0.000206411 -0.0396454 -0.0600075 0.0424698 0.004 300 0 
112 1 1 0.0192908 -0.0205461 0.0104851 0 0 0 9.233e-05 0.000134864 -9.80769e-05 0.000652921 0.000197781 0.000132516 -0.0750029 0.0766224 0.160535 0.004 300 0 
178 1 1 0.0318448 -0.0225288 0.0144782 0 0 0 0.000489521 -0.000394611 0.000799422 -0.000237067 -0.000467922 -0.000158129 0.0565171 0.305369 0.102629 0.004 300 0 
131 1 1 0.0407708 -0.0214785 0.0110495 0 0 0 0.000170833 3.33296e-05 0.000393531 -0.000121737 -0.000267849 -0.000462991 0.104883 0.147581 0.000498606 0.004 300 0 
160 1 1 -0.0414731 -0.0199366 0.0108147 0 0 0 6.39846e-06 -1.97393e-05 -2.4279e-06 6.91339e-05 0.000206965 4.81945e-05 0.0155221 -0.0221481 0.0222077 0.004 300 0 
43 1 1 -0.0361101 -0.0150926 0.0142652 0 0 0 9.35645e-05 -0.000139523 -0.000148611 -0.000145662 -0.000117012 -0.000179341 0.0928908 -0.0544007 -0.0708469 0.004 300 0 
4 1 1 -0.0270366 -0.0151166 0.0100745 0 0 0 0.000313672 -0.000212866 -0.000234016 0.000279913 3.55891e-05 -0.000424664 -0.0844142 -0.0790031 -0.0944099 0.004 300 0 
104 1 1 -0.0203059 -0.0192332 0.0111988 0 0 0 6.2987e-05 -0.000139862 6.39848e-05 0.000203456 -0.000419438 -0.000193402 -0.0066564 0.02523 0.0271384 0.004 300 0 
20 1 1 -0.00747473 -0.0162233 0.0110852 0 0 0 0.000397203 -0.000240244 0.000325939 0.000371922 -0.000444503 -0.000145059 0.0261587 -0.023795 -0.0195935 0.004 300 0 
45 1 1 0.000825515 -0.016438 0.0146109 0 0 0 -2.82756e-05 -0.00034932 -0.000136932 0.000649011 -6.71483e-05 0.000194654 -0.0684443 0.0311905 -0.0712483 0.004 300 0 
159 1 1 0.00795822 -0.0176915 0.0113638 0 0 0 -0.000174965 -0.000499035 -0.000335198 0.000937694 -0.000291869 -8.02075e-05 -0.0683706 0.0480752 0.0216255 0.004 300 0 
136 1 1 0.034796 -0.0163397 0.0104715 0 0 0 0.00012961 -2.7802e-05 0.000417611 0.000314878 0.000132142 0.000239297 -0.0867012 -0.0677984 -0.0336129 0.004 300 0 
177 1 1 -0.0443292 -0.0125254 0.0108181 0 0 0 7.69434e-05 -4.03688e-05 7.81046e-05 -1.00555e-05 0.000166863 0.000119432 0.0108721 -0.028682 -0.0415122 0.004 300 0 
139 1 1 -0.0168254 -0.0121127 0.0110392 0 0 0 7.78205e-05 -9.17139e-05 0.000111697 0.000262004 -0.000608993 -0.000156039 0.0163618 -0.00616252 0.00277723 0.004 300 0 
211 1 1 -0.00210176 -0.0104156 0.0103152 0 0 0 0.000337683 -0.000212177 3.53294e-05 -3.32028e-05 -0.000132327 -5.46907e-05 0.0431523 -0.00551642 -0.0254958 0.004 300 0 
54 1 1 0.0149318 -0.0139006 0.0108231 0 0 0 -0.00014096 -0.000264571 -0.000261308 0.00144486 -0.000176565 0.000472024 0.0427854 -0.0971208 -0.0475774 0.004 300 0 
84 1 1 0.0232759 -0.0118075 0.0106603 0 0 0 4.20226e-05 0.000446856 -7.46259e-05 0.000102515 0.000331838 0.000583775 -0.0524128 -0.109808 -0.00382671 0.004 300 0 
180 1 1 0.0438134 -0.0141092 0.0110432 0 0 0 0.000150667 0.000180491 0.000850552 -0.000154539 -0.000521052 -0.000162834 0.0310933 0.24605 -0.0933353 0.004 300 0 
103 1 1 0.0174543 -0.00636712 0.0105654 0 0 0 7.35216e-05 -3.61261e-05 -0.00013943 0.000403196 0.000250495 0.00109177 -0.0589682 0.059539 0.0377725 0.004 300 0 
156 1 1 0.030891 -0.00946325 0.0106325 0 0 0 0.000321993 0.00032276 -0.000160182 0.000496516 0.000729586 0.000722664 -0.0835147 0.0832864 -0.0417895 0.004 300 0 
197 1 1 -0.0457822 -0.00470767 0.0107632 0 0 0 0.000131187 6.01564e-07 6.42152e-05 -0.000174161 -3.86628e-05 0.000110397 0.00290598 -0.00986149 0.00974166 0.004 300 0 
87 1 1 -0.0386049 -0.0037992 0.0141426 0 0 0 -9.06911e-05 -0.000260248 0.000244603 0.000345192 7.60099e-05 0.000467491 0.0383918 -0.0718863 -0.00042846 0.004 300 0 
130 1 1 -0.0313607 -0.00386962 0.0107762 0 0 0 0.000199964 -0.000125897 0.000157812 0.000451527 0.000244597 0.000329038 -0.0273445 0.0414874 0.0128912 0.004 300 0 
604 1 1 -0.0224604 -0.000299274 0.0110792 0 0 0 0.000238861 -0.000352199 -1.64292e-05 0.000326015 -0.000102865 6.15178e-05 -0.0408758 -0.0149011 0.0315468 0.004 300 0 
146 1 1 -0.0155094 -0.00399916 0.0103922 0 0 0 0.000235004 -0.000300791 0.000125104 8.39785e-05 -0.00028874 -0.000229583 0.000269204 -0.0105647 0.0106194 0.004 300 0 
57 1 1 -0.00517516 -0.00310621 0.0112004 0 0 0 0.000150241 -0.000296694 0.00038926 -0.000186579 -0.000150145 2.05584e-05 0.118747 0.0179338 0.0225814 0.004 300 0 
493 1 1 0.0117225 -0.00086159 0.0103504 0 0 0 -0.000302673 -0.000643423 0.000221982 0.000508446 0.000371201 0.000314894 0.0325564 0.138296 0.172061 0.004 300 0 
31 1 1 0.0250584 -0.00405481 0.0104465 0 0 0 6.12816e-05 7.19663e-05 -0.000108319 0.000132248 0.000563843 0.00128111 -0.0701255 -0.0473771 -0.0372817 0.004 300 0 
588 1 1 0.0326053 -0.00174797 0.0105398 0 0 0 0.000144931 0.000182477 0.000233889 -0.000284792 0.00140347 0.00112869 0.0894691 -0.0988131 0.0378799 0.004 300 0 
63 1 1 0.0459264 -0.00328456 0.0119215 0 0 0 0.000328496 0.000415241 0.000216277 -0.000200267 -0.000378174 0.000927771 -0.127405 0.145068 -0.0679232 0.004 300 0 
107 1 1 -0.00847922 -0.0452758 0.017689 0 0 0 0.00033566 -0.00010719 3.51845e-05 -0.00021933 -0.000143825 6.28498e-05 0.0345722 -0.0950586 -0.0962647 0.004 300 0 
222 1 1 -0.00139338 -0.0418009 0.0171326 0 0 0 0.000377763 -1.88774e-05 0.000408298 -0.000274576 -0.000215046 0.0002394 -0.00927136 -0.0087271 0.110031 0.004 300 0 
142 1 1 0.0061758 -0.0401488 0.0154177 0 0 0 0.000294555 0.000176859 0.000501232 -0.000128033 -0.000277459 0.000139746 0.0376243 0.0140258 -0.0169509 0.004 300 0 
172 1 1 0.0116208 -0.0446299 0.0189962 0 0 0 0.000333606 5.67889e-05 0.000232735 4.20231e-05 -4.6898e-06 0.000159685 0.0237406 0.107677 -0.061294 0.004 300 0 
109 1 1 0.0203918 -0.0412976 0.0183404 0 0 0 0.000373966 0.000137615 0.000668024 0.00014908 -4.27204e-05 4.89752e-05 0.111224 0.00451465 -0.0253936 0.004 300 0 
150 1 1 -0.0273266 -0.0370834 0.0158765 0 0 0 -5.24742e-05 -3.75881e-05 4.57531e-06 4.20484e-05 4.45687e-05 -0.000145714 -0.011398 0.0375953 -0.0146043 0.004 300 0 
38 1 1 -0.0197741 -0.0373729 0.0182774 0 0 0 -0.00021196 -0.000197253 -0.000366527 -9.52998e-05 -0.000118799 -0.000121959 -0.00411363 0.0339122 -0.0146957 0.004 300 0 
199 1 1 -0.0118474 -0.0370394 0.0176575 0 0 0 -5.01216e-05 -0.000404064 -0.000411259 6.6268e-05 -0.000213214 0.000217257 0.0106441 -0.0144083 -0.0023935 0.004 300 0 
93 1 1 0.0137653 -0.0377636 0.0156989 0 0 0 0.000423618 0.000146726 0.000575821 -0.000178473 -0.000282055 -0.000158404 0.0317156 -0.0708683 -0.00516421 0.004 300 0 
64 1 1 0.0279616 -0.0365318 0.0179574 0 0 0 0.000258606 -0.000383312 0.000484465 -0.000158376 -0.000188651 -0.00113464 0.00246386 0.0700116 -0.0660322 0.004 300 0 
22 1 1 -0.032744 -0.0324221 0.0194601 0 0 0 -2.77972e-05 -3.60241e-05 0.000243623 0.000170687 -0.000219194 -0.000508509 0.00773809 -0.0797295 0.012351 0.004 300 0 
174 1 1 -0.0224333 -0.0302104 0.0162672 0 0 0 -0.000355467 -3.36885e-05 -9.13835e-05 0.000171859 0.00013457 -4.41942e-05 0.0848902 0.0258535 -0.00993376 0.004 300 0 
32 1 1 -0.00428658 -0.0344001 0.0166974 0 0 0 0.000185556 0.000112197 -0.000249811 0.000282095 0.000305043 0.000367837 -0.110651 -0.156119 -0.104007 0.004 300 0 
128 1 1 0.00348346 -0.0331422 0.0179772 0 0 0 1.80902e-05 0.000167496 0.000633426 -0.00031457 -0.00020927 0.000364172 -0.103185 -0.0678395 0.0583542 0.004 300 0 
88 1 1 0.0113394 -0.030457 0.0176558 0 0 0 0.000554007 -0.000179547 0.00120417 0.000428649 -0.000477408 -0.000537333 0.0775576 0.0324153 -0.00434039 0.004 300 0 
137 1 1 0.020738 -0.0338599 0.0155953 0 0 0 0.000361829 0.000246238 0.000552937 0.000135543 -0.000100768 -0.00064147 -0.126197 0.100403 0.0089129 0.004 300 0 
154 1 1 0.0339844 -0.0311459 0.0180497 0 0 0 0.000202881 -0.000334922 -0.000172035 7.56672e-05 0.000341897 -0.000807093 -0.0203286 0.000243709 0.0204193 0.004 300 0 
52 1 1 -0.0319906 -0.0252358 0.0161663 0 0 0 -5.32296e-05 -1.79986e-05 0.000247452 3.2896e-05 -0.000243534 -0.00065038 0.0106871 0.0103691 0.0142179 0.004 300 0 
80 1 1 -0.00960289 -0.0265123 0.0175973 0 0 0 -0.000513821 4.6334e-05 -0.00029523 0.000213939 0.000379926 0.000117331 -0.0222698 0.030578 -0.0117133 0.004 300 0 
125 1 1 -0.00113077 -0.0266885 0.0173457 0 0 0 -0.000317957 -0.000289336 2.38466e-06 -8.36588e-05 -3.79052e-05 0.00047429 -0.0203817 0.00782881 0.148124 0.004 300 0 
72 1 1 0.0179374 -0.0264506 0.0155955 0 0 0 0.000339676 0.000263489 -9.28589e-05 0.000261281 -0.000535496 -0.00100125 0.0273759 -0.186996 -0.0202226 0.004 300 0 
34 1 1 0.0269537 -0.0287342 0.0154604 0 0 0 0.000613212 -3.53937e-05 -0.000313666 6.3107e-05 -0.000537572 -0.000877084 -0.119224 0.012729 -0.190599 0.004 300 0 
218 1 1 -0.039597 -0.0234614 0.0176943 0 0 0 -2.72255e-05 -7.33196e-05 6.32546e-06 -7.42475e-05 0.000232034 -0.0003004 -0.0193212 -0.028387 -0.00273569 0.004 300 0 
70 1 1 -0.0247178 -0.0230214 0.0185725 0 0 0 -0.000154696 -7.93715e-05 0.000168398 -8.57735e-05 3.63673e-05 -0.000559536 -0.0287384 0.00985525 -0.00841671 0.004 300 0 
132 1 1 -0.0171311 -0.0242626 0.0164785 0 0 0 -0.000351015 -9.77021e-05 -1.41947e-05 -9.56901e-05 7.21666e-05 -8.47946e-05 0.0127844 0.017242 0.00996915 0.004 300 0 
196 1 1 0.00716198 -0.0237447 0.0170704 0 0 0 0.000441603 -0.000686792 0.000332754 0.0007357 -0.000114839 -0.000543967 -0.174081 -0.23167 0.119612 0.004 300 0 
362 1 1 0.0243953 -0.0214357 0.0171489 0 0 0 0.00014531 -4.06211e-05 -0.00169091 0.000446895 -0.000737577 -0.000153628 0.103842 -0.898356 0.157141 0.004 300 0 
49 1 1 0.0387598 -0.024809 0.0179831 0 0 0 0.0003905 -0.000328849 3.49161e-05 0.000128992 0.000145456 -0.000642554 0.0757008 -0.0555757 -0.0690843 0.004 300 0 
173 1 1 -0.04312 -0.0163104 0.0177153 0 0 0 4.57873e-05 -5.94388e-05 -0.000125285 -4.81534e-06 0.000250168 -9.81674e-05 0.0174526 0.0669977 -0.0260348 0.004 300 0 
50 1 1 -0.0295065 -0.0167616 0.0182862 0 0 0 -7.37101e-05 -0.000185746 -9.63655e-05 -0.000259304 -0.000295418 -0.000915456 -0.105963 0.0166307 0.0329133 0.004 300 0 
202 1 1 -0.0134693 -0.0172107 0.0161146 0 0 0 4.19904e-06 -0.000181357 0.00013644 4.01036e-05 -0.000640141 -0.000233861 -0.00473769 -0.065797 -0.000698305 0.004 300 0 
86 1 1 -0.00524459 -0.0199284 0.0183697 0 0 0 -2.43108e-05 -7.85467e-05 0.000137483 0.000403491 0.000145726 0.000477285 0.137772 -0.0368281 -0.130828 0.004 300 0 
129 1 1 0.0138901 -0.0196437 0.0162647 0 0 0 -9.33038e-05 0.00019925 -0.000160184 -0.000168072 -0.000529444 0.000176446 -0.146867 0.0350986 0.138465 0.004 300 0 
82 1 1 0.0291362 -0.0151351 0.0159324 0 0 0 0.000165268 0.0003684 7.92539e-07 -0.000453431 -0.000319103 -0.000323157 -0.0753982 0.0403129 -0.428178 0.004 300 0 
1 1 1 0.0424629 -0.0178139 0.0178791 0 0 0 -0.0002459 2.9239e-05 0.00100346 0.000514442 -0.000469629 -0.000571923 -0.0414234 -0.375709 0.243539 0.004 300 0 
168 1 1 -0.0224784 -0.0136307 0.0164167 0 0 0 -6.73061e-05 -0.000170339 -0.000108669 1.34287e-05 -0.000345079 -0.000651546 -0.0149721 -0.0398485 0.0117248 0.004 300 0 
121 1 1 -0.00518642 -0.012037 0.0174512 0 0 0 0.000626902 -1.19088e-05 7.035e-05 -0.000310077 -0.000177542 -0.00021553 -0.0983737 0.0990038 -0.00351387 0.004 300 0 
28 1 1 0.00812496 -0.0139365 0.0183279 0 0 0 0.000594309 -0.0015893 -0.00011555 0.00056191 0.000703499 9.30655e-06 0.418449 0.326425 0.369358 0.004 300 0 
42 1 1 0.0200628 -0.014812 0.0172872 0 0 0 0.0002608 -7.1118e-05 -0.000866698 -0.000635542 -0.000271363 0.000654698 0.427881 0.341538 -0.199259 0.004 300 0 
60 1 1 0.0376283 -0.0116379 0.0161626 0 0 0 0.000714248 -0.000527265 0.000337025 0.000702922 -0.000164383 0.000594427 0.349678 0.293331 0.14112 0.004 300 0 
135 1 1 -0.0452102 -0.00864318 0.0176853 0 0 0 0.000182275 0.000115195 2.90272e-05 -0.000250013 -3.55126e-05 -2.33798e-05 -0.0460066 0.0280704 -0.0127608 0.004 300 0 
81 1 1 -0.0376103 -0.00944619 0.0199508 0 0 0 0.000191542 -8.24988e-05 -0.000245646 0.000169959 0.00027362 1.20421e-05 0.0794449 0.0348528 -0.0353237 0.004 300 0 
190 1 1 -0.0303516 -0.00906213 0.0166809 0 0 0 0.000103954 -0.000296865 -0.000141671 0.000355775 -0.000153821 -0.000283533 0.0836851 -0.0167886 -0.0947308 0.004 300 0 
7 1 1 -0.0204528 -0.00598351 0.016254 0 0 0 8.32288e-05 -0.000317974 4.47168e-05 0.000190094 -0.00020964 -0.000232145 0.0541942 -0.00833081 -0.0707645 0.004 300 0 
145 1 1 -0.0120076 -0.00831739 0.0160622 0 0 0 0.000279426 -0.00020861 0.000198045 -0.000382733 -0.000252727 -0.000226987 -0.0160918 -0.00633843 0.0290516 0.004 300 0 
186 1 1 0.00208799 -0.00891514 0.0169122 0 0 0 0.00143385 -0.000651831 -0.000895995 -0.000367574 -0.00019677 -0.000674054 0.160059 -0.0565793 -0.0672216 0.004 300 0 
56 1 1 0.0144346 -0.00916841 0.0173869 0 0 0 0.000312857 -0.000217059 0.00057576 -0.000510523 0.000805643 0.00112531 0.235306 0.104264 -0.190456 0.004 300 0 
191 1 1 0.0221503 -0.00719089 0.0170713 0 0 0 0.00018814 3.75561e-05 0.000300119 -0.000697418 -0.000370675 0.00155354 0.0480232 0.0812353 0.221161 0.004 300 0 
208 1 1 0.0315126 -0.00609534 0.0178121 0 0 0 -0.000101595 -0.000207376 -0.000418703 -0.000380733 2.97535e-05 -0.0005931 0.407309 -0.134409 0.178732 0.004 300 0 
92 1 1 0.0451152 -0.00920925 0.0172043 0 0 0 0.00039133 0.000635698 0.000180347 0.000961755 -0.000619167 0.000690709 -0.127324 -0.159679 0.137263 0.004 300 0 
192 1 1 -0.0460781 -0.000753057 0.0176241 0 0 0 -6.47628e-05 4.85958e-05 -4.27812e-06 -0.000134456 -9.18568e-06 -9.14718e-05 -0.00366848 -0.00135591 0.0556145 0.004 300 0 
462 1 1 -0.0271602 -0.00181343 0.0172871 0 0 0 0.000165736 -0.00044426 -0.000180166 0.00039051 -0.000164165 7.27808e-05 -0.0788387 -0.0728333 0.079194 0.004 300 0 
450 1 1 -0.0128048 -0.000772444 0.0182705 0 0 0 2.44032e-05 -0.000190789 8.65303e-05 -0.000498713 -0.000242148 -0.000119413 0.00512122 0.0348792 0.069518 0.004 300 0 
111 1 1 -0.00560331 -0.00407538 0.0190724 0 0 0 8.41236e-05 -0.000252444 0.00037617 0.000168853 -2.5156e-05 -0.000464523 -0.131313 -0.0303231 -0.111413 0.004 300 0 
622 1 1 0.00100692 -0.00111499 0.0157657 0 0 0 0.000192053 -0.000396682 9.44583e-05 0.000697293 -1.92968e-05 -0.000787943 0.0416355 0.0820935 0.0855242 0.004 300 0 
106 1 1 0.00834597 -0.00407643 0.0167427 0 0 0 0.000802131 0.00063889 0.0019585 -0.00010096 -0.00017958 5.97565e-06 0.187992 -0.681688 0.419128 0.004 300 0 